 Entering Gaussian System, Link 0=g16
 Initial command:
 /software/gaussian/g16-c01/avx/g16/l1.exe "/gpfs/fs2/scratch/bweight/software/many_molecule_many_mode_NAMD/src/WFN_OVERLAP/G16_EXAMPLE/OVERLAP/Gau-21029.inp" -scrdir="/gpfs/fs2/scratch/bweight/software/many_molecule_many_mode_NAMD/src/WFN_OVERLAP/G16_EXAMPLE/OVERLAP/"
 Entering Link 1 = /software/gaussian/g16-c01/avx/g16/l1.exe PID=     21030.
  
 Copyright (c) 1988-2019, Gaussian, Inc.  All Rights Reserved.
  
 This is part of the Gaussian(R) 16 program.  It is based on
 the Gaussian(R) 09 system (copyright 2009, Gaussian, Inc.),
 the Gaussian(R) 03 system (copyright 2003, Gaussian, Inc.),
 the Gaussian(R) 98 system (copyright 1998, Gaussian, Inc.),
 the Gaussian(R) 94 system (copyright 1995, Gaussian, Inc.),
 the Gaussian 92(TM) system (copyright 1992, Gaussian, Inc.),
 the Gaussian 90(TM) system (copyright 1990, Gaussian, Inc.),
 the Gaussian 88(TM) system (copyright 1988, Gaussian, Inc.),
 the Gaussian 86(TM) system (copyright 1986, Carnegie Mellon
 University), and the Gaussian 82(TM) system (copyright 1983,
 Carnegie Mellon University). Gaussian is a federally registered
 trademark of Gaussian, Inc.
  
 This software contains proprietary and confidential information,
 including trade secrets, belonging to Gaussian, Inc.
  
 This software is provided under written license and may be
 used, copied, transmitted, or stored only in accord with that
 written license.
  
 The following legend is applicable only to US Government
 contracts under FAR:
  
                    RESTRICTED RIGHTS LEGEND
  
 Use, reproduction and disclosure by the US Government is
 subject to restrictions as set forth in subparagraphs (a)
 and (c) of the Commercial Computer Software - Restricted
 Rights clause in FAR 52.227-19.
  
 Gaussian, Inc.
 340 Quinnipiac St., Bldg. 40, Wallingford CT 06492
  
  
 ---------------------------------------------------------------
 Warning -- This program may not be used in any manner that
 competes with the business of Gaussian, Inc. or will provide
 assistance to any competitor of Gaussian, Inc.  The licensee
 of this program is prohibited from giving any competitor of
 Gaussian, Inc. access to this program.  By using this program,
 the user acknowledges that Gaussian, Inc. is engaged in the
 business of creating and licensing software in the field of
 computational chemistry and represents and warrants to the
 licensee that it is not a competitor of Gaussian, Inc. and that
 it will not use this program in any manner prohibited above.
 ---------------------------------------------------------------
  

 Cite this work as:
 Gaussian 16, Revision C.01,
 M. J. Frisch, G. W. Trucks, H. B. Schlegel, G. E. Scuseria, 
 M. A. Robb, J. R. Cheeseman, G. Scalmani, V. Barone, 
 G. A. Petersson, H. Nakatsuji, X. Li, M. Caricato, A. V. Marenich, 
 J. Bloino, B. G. Janesko, R. Gomperts, B. Mennucci, H. P. Hratchian, 
 J. V. Ortiz, A. F. Izmaylov, J. L. Sonnenberg, D. Williams-Young, 
 F. Ding, F. Lipparini, F. Egidi, J. Goings, B. Peng, A. Petrone, 
 T. Henderson, D. Ranasinghe, V. G. Zakrzewski, J. Gao, N. Rega, 
 G. Zheng, W. Liang, M. Hada, M. Ehara, K. Toyota, R. Fukuda, 
 J. Hasegawa, M. Ishida, T. Nakajima, Y. Honda, O. Kitao, H. Nakai, 
 T. Vreven, K. Throssell, J. A. Montgomery, Jr., J. E. Peralta, 
 F. Ogliaro, M. J. Bearpark, J. J. Heyd, E. N. Brothers, K. N. Kudin, 
 V. N. Staroverov, T. A. Keith, R. Kobayashi, J. Normand, 
 K. Raghavachari, A. P. Rendell, J. C. Burant, S. S. Iyengar, 
 J. Tomasi, M. Cossi, J. M. Millam, M. Klene, C. Adamo, R. Cammi, 
 J. W. Ochterski, R. L. Martin, K. Morokuma, O. Farkas, 
 J. B. Foresman, and D. J. Fox, Gaussian, Inc., Wallingford CT, 2019.
 
 ******************************************
 Gaussian 16:  ES64L-G16RevC.01  3-Jul-2019
                26-Dec-2022 
 ******************************************
 %chk=geometry.chk
 %mem=4GB
 %nprocshared=1
 Will use up to    1 processors via shared memory.
 ------------------------------------------------------------
 # B3LYP/sto-3g nosymm iop(2/12=3,3/33=1) guess=only pop=full
 ------------------------------------------------------------
 1/38=1,172=1/1;
 2/12=3,15=1,17=6,18=5,40=1/2;
 3/6=3,11=2,25=1,30=1,33=1,74=-5,89=1/1,2;
 4//1;
 6/7=3,28=1/1;
 99/5=2/99;
 -------
 TitleMe
 -------
 Symbolic Z-matrix:
 Charge =  0 Multiplicity = 1
 c                    -0.70973   0.00004  -0.00051 
 c                    -0.00938  -1.2192   -0.00224 
 c                     1.37458  -1.22038  -0.0079 
 c                     2.10217  -0.00001  -0.004 
 c                     1.37459   1.22034  -0.00787 
 c                    -0.0094    1.21924  -0.00216 
 h                    -0.56421  -2.17411  -0.00104 
 h                     1.91018  -2.18179  -0.00734 
 h                     1.91011   2.18183  -0.00738 
 h                    -0.56415   2.17417  -0.00082 
 n                     3.47906  -0.00003   0.06018 
 h                     3.95344  -0.84481  -0.14732 
 h                     3.95343   0.84491  -0.14674 
 n                    -2.18763   0.        0.00146 
 o                    -2.77348   1.05131   0.0016 
 o                    -2.77349  -1.05135   0.0018 
 c                    -0.70835   0.00004  -0.00051 
 c                    -0.01642  -1.22205  -0.00225 
 c                     1.38059  -1.22222  -0.00797 
 c                     2.09915  -0.00001  -0.0039 
 c                     1.3806    1.22218  -0.00794 
 c                    -0.01644   1.22209  -0.00217 
 h                    -0.56025  -2.17189  -0.00101 
 h                     1.91125  -2.18006  -0.00718 
 h                     1.91118   2.18008  -0.00721 
 h                    -0.56021   2.17197  -0.00079 
 n                     3.4777   -0.00003   0.06195 
 h                     3.98382  -0.89338  -0.15959 
 h                     3.9838    0.89347  -0.15898 
 n                    -2.16283  0.         0.00145 
 o                    -2.78458   1.06508   0.00161 
 o                    -2.78459  -1.06512   0.00181 
 
                          Input orientation:                          
 ---------------------------------------------------------------------
 Center     Atomic      Atomic             Coordinates (Angstroms)
 Number     Number       Type             X           Y           Z
 ---------------------------------------------------------------------
      1          6           0       -0.709730    0.000040   -0.000510
      2          6           0       -0.009380   -1.219200   -0.002240
      3          6           0        1.374580   -1.220380   -0.007900
      4          6           0        2.102169   -0.000010   -0.004000
      5          6           0        1.374590    1.220339   -0.007870
      6          6           0       -0.009400    1.219240   -0.002160
      7          1           0       -0.564210   -2.174109   -0.001040
      8          1           0        1.910179   -2.181789   -0.007340
      9          1           0        1.910109    2.181829   -0.007380
     10          1           0       -0.564150    2.174169   -0.000820
     11          7           0        3.479059   -0.000030    0.060180
     12          1           0        3.953438   -0.844810   -0.147320
     13          1           0        3.953428    0.844910   -0.146740
     14          7           0       -2.187629    0.000000    0.001460
     15          8           0       -2.773479    1.051310    0.001600
     16          8           0       -2.773489   -1.051350    0.001800
     17          6           0       -0.708352    0.000037   -0.000509
     18          6           0       -0.016420   -1.222055   -0.002246
     19          6           0        1.380591   -1.222220   -0.007971
     20          6           0        2.099146   -0.000011   -0.003900
     21          6           0        1.380598    1.222185   -0.007940
     22          6           0       -0.016435    1.222095   -0.002166
     23          1           0       -0.560253   -2.171893   -0.001006
     24          1           0        1.911251   -2.180061   -0.007176
     25          1           0        1.911184    2.180076   -0.007214
     26          1           0       -0.560206    2.171966   -0.000787
     27          7           0        3.477700   -0.000030    0.061953
     28          1           0        3.983821   -0.893378   -0.159588
     29          1           0        3.983803    0.893475   -0.158983
     30          7           0       -2.162827   -0.000001    0.001447
     31          8           0       -2.784585    1.065079    0.001608
     32          8           0       -2.784592   -1.065117    0.001810
 ---------------------------------------------------------------------
                    Distance matrix (angstroms):
                    1          2          3          4          5
     1  C    0.000000
     2  C    1.406072   0.000000
     3  C    2.415331   1.383972   0.000000
     4  C    2.811901   2.438251   1.420811   0.000000
     5  C    2.415279   2.804773   2.440719   1.420789   0.000000
     6  C    1.406027   2.438439   2.804848   2.438298   1.384002
     7  H    2.179014   1.104396   2.160683   3.440391   3.909127
     8  H    3.409450   2.147397   1.100534   2.190213   3.444029
     9  H    3.409370   3.905312   3.444099   2.190279   1.100565
    10  H    2.178998   3.438419   3.909179   3.440396   2.160683
    11  N    4.189228   3.695873   2.433664   1.378384   2.433664
    12  H    4.741356   3.983108   2.609790   2.039957   3.306773
    13  H    4.741332   4.470490   3.306835   2.039957   2.609721
    14  N    1.477901   2.496243   3.765467   4.289802   3.765464
    15  O    2.316081   3.577075   4.729382   4.987710   4.151522
    16  O    2.316145   2.769203   4.151522   4.987724   4.729399
    17  C    0.001378   1.405383   2.414140   2.810523   2.414092
    18  C    1.405061   0.007597   1.391012   2.445775   2.810735
    19  C    2.421450   1.389986   0.006288   1.419327   2.442567
    20  C    2.808878   2.435633   1.419264   0.003025   1.419244
    21  C    2.421397   2.809347   2.442572   1.419310   0.006286
    22  C    1.405019   2.441304   2.810807   2.445819   1.391038
    23  H    2.177071   1.100494   2.156155   3.435925   3.905241
    24  H    3.409168   2.147581   1.099548   2.188398   3.442489
    25  H    3.409074   3.904313   3.442534   2.188438   1.099558
    26  H    2.177067   3.435610   3.905311   3.435947   2.156172
    27  N    4.187895   3.694621   2.432540   1.377111   2.432540
    28  H    4.780473   4.009560   2.634024   2.088763   3.361385
    29  H    4.780438   4.520340   3.361436   2.088751   2.633946
    30  N    1.453099   2.474630   3.742012   4.265000   3.742009
    31  O    2.332238   3.594399   4.745741   5.001481   4.162082
    32  O    2.332299   2.779489   4.162080   5.001492   4.745756
                    6          7          8          9         10
     6  C    0.000000
     7  H    3.438405   0.000000
     8  H    3.905356   2.474409   0.000000
     9  H    2.147352   5.009640   4.363618   0.000000
    10  H    1.104373   4.348278   5.009662   2.474280   0.000000
    11  N    3.695923   4.591120   2.688125   2.688248   4.591122
    12  H    4.470510   4.711431   2.445816   3.654493   5.435467
    13  H    3.983094   5.435509   3.654477   2.445798   4.711341
    14  N    2.496245   2.713346   4.642447   4.642404   2.713430
    15  O    2.769178   3.909502   5.691191   4.818107   2.478297
    16  O    3.577119   2.478207   4.818166   5.691188   3.909624
    17  C    1.405344   2.178919   3.408389   3.408314   2.178909
    18  C    2.441304   1.098400   2.152417   3.911262   3.440109
    19  C    2.809419   2.165270   1.096009   3.444988   3.913762
    20  C    2.435681   3.438048   2.189949   2.190017   3.438054
    21  C    1.390013   3.913712   3.444923   1.096038   2.165264
    22  C    0.007593   3.440096   3.911304   2.152369   1.098380
    23  H    3.435582   0.004535   2.470460   5.005759   4.346064
    24  H    3.904379   2.475476   0.002040   4.361891   5.008690
    25  H    2.147527   5.008646   4.361865   0.002063   2.475349
    26  H    1.100489   4.346077   5.005800   2.470344   0.004518
    27  N    3.694671   4.589948   2.687377   2.687500   4.589949
    28  H    4.520371   4.727578   2.446052   3.712189   5.488087
    29  H    4.009537   5.488118   3.712164   2.446027   4.727481
    30  N    2.474633   2.698579   4.620569   4.620527   2.698665
    31  O    2.779466   3.927138   5.708156   4.825698   2.482019
    32  O    3.594439   2.481929   4.825756   5.708149   3.927257
                   11         12         13         14         15
    11  N    0.000000
    12  H    0.990831   0.000000
    13  H    0.990841   1.689719   0.000000
    14  N    5.666992   6.200689   6.200679   0.000000
    15  O    6.340581   6.990627   6.731708   1.203525   0.000000
    16  O    6.340586   6.731749   6.990657   1.203565   2.102659
    17  C    4.187850   4.740001   4.739978   1.479278   2.317311
    18  C    3.703460   3.990381   4.478048   2.491502   3.573454
    19  C    2.429395   2.604112   3.303297   3.771751   4.735539
    20  C    1.381399   2.042707   2.042708   4.286779   4.984755
    21  C    2.429400   3.303241   2.604046   3.771746   4.157601
    22  C    3.703506   4.478064   3.990362   2.491508   2.762331
    23  H    4.586586   4.707013   5.430991   2.713941   3.909912
    24  H    2.686093   2.443986   3.652453   4.642581   5.691092
    25  H    2.686193   3.652446   2.443951   4.642529   4.818740
    26  H    4.586605   5.430966   4.706939   2.714028   2.480817
    27  N    0.002234   0.991855   0.991863   5.665652   6.339258
    28  H    1.049359   0.058588   1.738601   6.237857   7.033413
    29  H    1.049357   1.738589   0.058575   6.237838   6.761033
    30  N    5.642191   6.176126   6.176117   0.024802   1.215792
    31  O    6.353827   7.005056   6.743241   1.220962   0.017690
    32  O    6.353829   6.743281   7.005083   1.220999   2.116455
                   16         17         18         19         20
    16  O    0.000000
    17  C    2.317371   0.000000
    18  C    2.762351   1.404379   0.000000
    19  C    4.157605   2.420259   1.397023   0.000000
    20  C    4.984769   2.807500   2.443157   1.417791   0.000000
    21  C    4.735556   2.420210   2.815315   2.444405   1.417777
    22  C    3.573501   1.404342   2.444150   2.815385   2.443201
    23  H    2.480733   2.176973   1.094508   2.160742   3.433582
    24  H    4.818803   3.408107   2.152607   1.095016   2.188135
    25  H    5.691076   3.408018   3.910265   3.443421   2.188177
    26  H    3.910037   2.176976   3.437308   3.909891   3.433606
    27  N    6.339263   4.186518   3.702208   2.428272   1.380126
    28  H    6.761083   4.779120   4.016804   2.628294   2.091493
    29  H    7.033434   4.779087   4.527893   3.357928   2.091483
    30  N    1.215829   1.454476   2.469917   3.748296   4.261977
    31  O    2.116458   2.333466   3.590784   4.751897   4.998527
    32  O    0.017687   2.333523   2.772620   4.168157   4.998538
                   21         22         23         24         25
    21  C    0.000000
    22  C    1.397046   0.000000
    23  H    3.909823   3.437280   0.000000
    24  H    3.443381   3.910328   2.471525   0.000000
    25  H    1.095024   2.152549   5.004765   4.360137   0.000000
    26  H    2.160754   1.094506   4.343859   5.004826   2.471411
    27  N    2.428277   3.702253   4.585414   2.685345   2.685445
    28  H    3.357882   4.527920   4.723173   2.444244   3.710143
    29  H    2.628220   4.016776   5.483601   3.710140   2.444203
    30  N    3.748292   2.469925   2.699141   4.620698   4.620647
    31  O    4.168156   2.772602   3.927550   5.708055   4.826338
    32  O    4.751911   3.590828   2.484481   4.826399   5.708036
                   26         27         28         29         30
    26  H    0.000000
    27  N    4.585432   0.000000
    28  H    5.483588   1.050386   0.000000
    29  H    4.723091   1.050382   1.786853   0.000000
    30  N    2.699230   5.640852   6.213320   6.213301   0.000000
    31  O    2.484566   6.352504   7.047897   6.772468   1.233280
    32  O    3.927672   6.352506   6.772516   7.047916   1.233314
                   31         32
    31  O    0.000000
    32  O    2.130196   0.000000
 Symmetry turned off by external request.
 Stoichiometry    C12H12N4O4
 Framework group  C1[X(C12H12N4O4)]
 Deg. of freedom    90
 Full point group                 C1      NOp   1
 Rotational constants (GHZ):           1.9724653           0.4034460           0.3350257
 Standard basis: STO-3G (5D, 7F)
                         Coordinates in L301:                         
 ---------------------------------------------------------------------
 Center     Atomic      Atomic             Coordinates (Angstroms)
 Number     Number       Type             X           Y           Z
 ---------------------------------------------------------------------
      1          6           0       -0.709730    0.000040   -0.000510
      2          6           0       -0.009380   -1.219200   -0.002240
      3          6           0        1.374580   -1.220380   -0.007900
      4          6           0        2.102169   -0.000010   -0.004000
      5          6           0        1.374590    1.220339   -0.007870
      6          6           0       -0.009400    1.219240   -0.002160
      7          1           0       -0.564210   -2.174109   -0.001040
      8          1           0        1.910179   -2.181789   -0.007340
      9          1           0        1.910109    2.181829   -0.007380
     10          1           0       -0.564150    2.174169   -0.000820
     11          7           0        3.479059   -0.000030    0.060180
     12          1           0        3.953438   -0.844810   -0.147320
     13          1           0        3.953428    0.844910   -0.146740
     14          7           0       -2.187629    0.000000    0.001460
     15          8           0       -2.773479    1.051310    0.001600
     16          8           0       -2.773489   -1.051350    0.001800
     17          6           0       -0.708352    0.000037   -0.000509
     18          6           0       -0.016420   -1.222055   -0.002246
     19          6           0        1.380591   -1.222220   -0.007971
     20          6           0        2.099146   -0.000011   -0.003900
     21          6           0        1.380598    1.222185   -0.007940
     22          6           0       -0.016435    1.222095   -0.002166
     23          1           0       -0.560253   -2.171893   -0.001006
     24          1           0        1.911251   -2.180061   -0.007176
     25          1           0        1.911184    2.180076   -0.007214
     26          1           0       -0.560206    2.171966   -0.000787
     27          7           0        3.477700   -0.000030    0.061953
     28          1           0        3.983821   -0.893378   -0.159588
     29          1           0        3.983803    0.893475   -0.158983
     30          7           0       -2.162827   -0.000001    0.001447
     31          8           0       -2.784585    1.065079    0.001608
     32          8           0       -2.784592   -1.065117    0.001810
 ---------------------------------------------------------------------
 FixB: optimizing general contractions.
 Ernie: Thresh=  0.10000D-02 Tol=  0.10000D-05 Strict=F.
 IA=     1 ShT= 0 ShC= 0 NL=   1 NS=   0.
 IA=     1 L=0 SC=0 ISt=    0 NBk=    0 NP=    0 IndPr=    0.
 IA=     1 ShT= 1 ShC= 0 NL=   1 NS=   0.
 IA=     1 L=1 SC=0 ISt=    0 NBk=    0 NP=    0 IndPr=    0.
 IA=     2 ShT= 0 ShC= 0 NL=   1 NS=   0.
 IA=     2 L=0 SC=0 ISt=    0 NBk=    0 NP=    0 IndPr=    0.
 IA=     2 ShT= 1 ShC= 0 NL=   1 NS=   0.
 IA=     2 L=1 SC=0 ISt=    0 NBk=    0 NP=    0 IndPr=    0.
 IA=     3 ShT= 0 ShC= 0 NL=   1 NS=   0.
 IA=     3 L=0 SC=0 ISt=    0 NBk=    0 NP=    0 IndPr=    0.
 IA=     3 ShT= 1 ShC= 0 NL=   1 NS=   0.
 IA=     3 L=1 SC=0 ISt=    0 NBk=    0 NP=    0 IndPr=    0.
 IA=     4 ShT= 0 ShC= 0 NL=   1 NS=   0.
 IA=     4 L=0 SC=0 ISt=    0 NBk=    0 NP=    0 IndPr=    0.
 IA=     4 ShT= 1 ShC= 0 NL=   1 NS=   0.
 IA=     4 L=1 SC=0 ISt=    0 NBk=    0 NP=    0 IndPr=    0.
 IA=     5 ShT= 0 ShC= 0 NL=   1 NS=   0.
 IA=     5 L=0 SC=0 ISt=    0 NBk=    0 NP=    0 IndPr=    0.
 IA=     5 ShT= 1 ShC= 0 NL=   1 NS=   0.
 IA=     5 L=1 SC=0 ISt=    0 NBk=    0 NP=    0 IndPr=    0.
 IA=     6 ShT= 0 ShC= 0 NL=   1 NS=   0.
 IA=     6 L=0 SC=0 ISt=    0 NBk=    0 NP=    0 IndPr=    0.
 IA=     6 ShT= 1 ShC= 0 NL=   1 NS=   0.
 IA=     6 L=1 SC=0 ISt=    0 NBk=    0 NP=    0 IndPr=    0.
 IA=     7 ShT= 0 ShC= 0 NL=   1 NS=   0.
 IA=     7 L=0 SC=0 ISt=    0 NBk=    0 NP=    0 IndPr=    0.
 IA=     8 ShT= 0 ShC= 0 NL=   1 NS=   0.
 IA=     8 L=0 SC=0 ISt=    0 NBk=    0 NP=    0 IndPr=    0.
 IA=     9 ShT= 0 ShC= 0 NL=   1 NS=   0.
 IA=     9 L=0 SC=0 ISt=    0 NBk=    0 NP=    0 IndPr=    0.
 IA=    10 ShT= 0 ShC= 0 NL=   1 NS=   0.
 IA=    10 L=0 SC=0 ISt=    0 NBk=    0 NP=    0 IndPr=    0.
 IA=    11 ShT= 0 ShC= 0 NL=   1 NS=   0.
 IA=    11 L=0 SC=0 ISt=    0 NBk=    0 NP=    0 IndPr=    0.
 IA=    11 ShT= 1 ShC= 0 NL=   1 NS=   0.
 IA=    11 L=1 SC=0 ISt=    0 NBk=    0 NP=    0 IndPr=    0.
 IA=    12 ShT= 0 ShC= 0 NL=   1 NS=   0.
 IA=    12 L=0 SC=0 ISt=    0 NBk=    0 NP=    0 IndPr=    0.
 IA=    13 ShT= 0 ShC= 0 NL=   1 NS=   0.
 IA=    13 L=0 SC=0 ISt=    0 NBk=    0 NP=    0 IndPr=    0.
 IA=    14 ShT= 0 ShC= 0 NL=   1 NS=   0.
 IA=    14 L=0 SC=0 ISt=    0 NBk=    0 NP=    0 IndPr=    0.
 IA=    14 ShT= 1 ShC= 0 NL=   1 NS=   0.
 IA=    14 L=1 SC=0 ISt=    0 NBk=    0 NP=    0 IndPr=    0.
 IA=    15 ShT= 0 ShC= 0 NL=   1 NS=   0.
 IA=    15 L=0 SC=0 ISt=    0 NBk=    0 NP=    0 IndPr=    0.
 IA=    15 ShT= 1 ShC= 0 NL=   1 NS=   0.
 IA=    15 L=1 SC=0 ISt=    0 NBk=    0 NP=    0 IndPr=    0.
 IA=    16 ShT= 0 ShC= 0 NL=   1 NS=   0.
 IA=    16 L=0 SC=0 ISt=    0 NBk=    0 NP=    0 IndPr=    0.
 IA=    16 ShT= 1 ShC= 0 NL=   1 NS=   0.
 IA=    16 L=1 SC=0 ISt=    0 NBk=    0 NP=    0 IndPr=    0.
 IA=    17 ShT= 0 ShC= 0 NL=   1 NS=   0.
 IA=    17 L=0 SC=0 ISt=    0 NBk=    0 NP=    0 IndPr=    0.
 IA=    17 ShT= 1 ShC= 0 NL=   1 NS=   0.
 IA=    17 L=1 SC=0 ISt=    0 NBk=    0 NP=    0 IndPr=    0.
 IA=    18 ShT= 0 ShC= 0 NL=   1 NS=   0.
 IA=    18 L=0 SC=0 ISt=    0 NBk=    0 NP=    0 IndPr=    0.
 IA=    18 ShT= 1 ShC= 0 NL=   1 NS=   0.
 IA=    18 L=1 SC=0 ISt=    0 NBk=    0 NP=    0 IndPr=    0.
 IA=    19 ShT= 0 ShC= 0 NL=   1 NS=   0.
 IA=    19 L=0 SC=0 ISt=    0 NBk=    0 NP=    0 IndPr=    0.
 IA=    19 ShT= 1 ShC= 0 NL=   1 NS=   0.
 IA=    19 L=1 SC=0 ISt=    0 NBk=    0 NP=    0 IndPr=    0.
 IA=    20 ShT= 0 ShC= 0 NL=   1 NS=   0.
 IA=    20 L=0 SC=0 ISt=    0 NBk=    0 NP=    0 IndPr=    0.
 IA=    20 ShT= 1 ShC= 0 NL=   1 NS=   0.
 IA=    20 L=1 SC=0 ISt=    0 NBk=    0 NP=    0 IndPr=    0.
 IA=    21 ShT= 0 ShC= 0 NL=   1 NS=   0.
 IA=    21 L=0 SC=0 ISt=    0 NBk=    0 NP=    0 IndPr=    0.
 IA=    21 ShT= 1 ShC= 0 NL=   1 NS=   0.
 IA=    21 L=1 SC=0 ISt=    0 NBk=    0 NP=    0 IndPr=    0.
 IA=    22 ShT= 0 ShC= 0 NL=   1 NS=   0.
 IA=    22 L=0 SC=0 ISt=    0 NBk=    0 NP=    0 IndPr=    0.
 IA=    22 ShT= 1 ShC= 0 NL=   1 NS=   0.
 IA=    22 L=1 SC=0 ISt=    0 NBk=    0 NP=    0 IndPr=    0.
 IA=    23 ShT= 0 ShC= 0 NL=   1 NS=   0.
 IA=    23 L=0 SC=0 ISt=    0 NBk=    0 NP=    0 IndPr=    0.
 IA=    24 ShT= 0 ShC= 0 NL=   1 NS=   0.
 IA=    24 L=0 SC=0 ISt=    0 NBk=    0 NP=    0 IndPr=    0.
 IA=    25 ShT= 0 ShC= 0 NL=   1 NS=   0.
 IA=    25 L=0 SC=0 ISt=    0 NBk=    0 NP=    0 IndPr=    0.
 IA=    26 ShT= 0 ShC= 0 NL=   1 NS=   0.
 IA=    26 L=0 SC=0 ISt=    0 NBk=    0 NP=    0 IndPr=    0.
 IA=    27 ShT= 0 ShC= 0 NL=   1 NS=   0.
 IA=    27 L=0 SC=0 ISt=    0 NBk=    0 NP=    0 IndPr=    0.
 IA=    27 ShT= 1 ShC= 0 NL=   1 NS=   0.
 IA=    27 L=1 SC=0 ISt=    0 NBk=    0 NP=    0 IndPr=    0.
 IA=    28 ShT= 0 ShC= 0 NL=   1 NS=   0.
 IA=    28 L=0 SC=0 ISt=    0 NBk=    0 NP=    0 IndPr=    0.
 IA=    29 ShT= 0 ShC= 0 NL=   1 NS=   0.
 IA=    29 L=0 SC=0 ISt=    0 NBk=    0 NP=    0 IndPr=    0.
 IA=    30 ShT= 0 ShC= 0 NL=   1 NS=   0.
 IA=    30 L=0 SC=0 ISt=    0 NBk=    0 NP=    0 IndPr=    0.
 IA=    30 ShT= 1 ShC= 0 NL=   1 NS=   0.
 IA=    30 L=1 SC=0 ISt=    0 NBk=    0 NP=    0 IndPr=    0.
 IA=    31 ShT= 0 ShC= 0 NL=   1 NS=   0.
 IA=    31 L=0 SC=0 ISt=    0 NBk=    0 NP=    0 IndPr=    0.
 IA=    31 ShT= 1 ShC= 0 NL=   1 NS=   0.
 IA=    31 L=1 SC=0 ISt=    0 NBk=    0 NP=    0 IndPr=    0.
 IA=    32 ShT= 0 ShC= 0 NL=   1 NS=   0.
 IA=    32 L=0 SC=0 ISt=    0 NBk=    0 NP=    0 IndPr=    0.
 IA=    32 ShT= 1 ShC= 0 NL=   1 NS=   0.
 IA=    32 L=1 SC=0 ISt=    0 NBk=    0 NP=    0 IndPr=    0.
 LdAtmC:  AtmChg=     6.000000     6.000000     6.000000     6.000000     6.000000
 LdAtmC:  AtmChg=     6.000000     1.000000     1.000000     1.000000     1.000000
 LdAtmC:  AtmChg=     7.000000     1.000000     1.000000     7.000000     8.000000
 LdAtmC:  AtmChg=     8.000000     6.000000     6.000000     6.000000     6.000000
 LdAtmC:  AtmChg=     6.000000     6.000000     1.000000     1.000000     1.000000
 LdAtmC:  AtmChg=     1.000000     7.000000     1.000000     1.000000     7.000000
 LdAtmC:  AtmChg=     8.000000     8.000000
 AtZEff=     -3.6000000     -3.6000000     -3.6000000     -3.6000000     -3.6000000
 AtZEff=     -3.6000000     -1.0000000     -1.0000000     -1.0000000     -1.0000000
 AtZEff=     -4.5500000     -1.0000000     -1.0000000     -4.5500000     -5.6000000
 AtZEff=     -5.6000000     -3.6000000     -3.6000000     -3.6000000     -3.6000000
 AtZEff=     -3.6000000     -3.6000000     -1.0000000     -1.0000000     -1.0000000
 AtZEff=     -1.0000000     -4.5500000     -1.0000000     -1.0000000     -4.5500000
 AtZEff=     -5.6000000     -5.6000000
   112 basis functions,   336 primitive gaussians,   112 cartesian basis functions
    72 alpha electrons       72 beta electrons
       nuclear repulsion energy     50427.8923466101 Hartrees.
 IS=     1 IAt=     1 ISR=     1 T=0 IP=      1 IndIP=      1 IndIPD=      0 C=  2.707814D+00  0.000000D+00                             NZ=T
 IS=     1 IAt=     1 ISR=     1 T=0 IP=      2 IndIP=      2 IndIPD=      1 C=  2.618880D+00  0.000000D+00                             NZ=T
 IS=     1 IAt=     1 ISR=     1 T=0 IP=      3 IndIP=      3 IndIPD=      2 C=  8.161906D-01  0.000000D+00                             NZ=T
 IS=     2 IAt=     1 ISR=     2 T=1 IP=      1 IndIP=      4 IndIPD=      0 C= -1.600172D-01  8.560445D-01                             NZ=T
 IS=     2 IAt=     1 ISR=     2 T=1 IP=      2 IndIP=      5 IndIPD=      1 C=  2.140359D-01  5.383038D-01                             NZ=T
 IS=     2 IAt=     1 ISR=     2 T=1 IP=      3 IndIP=      6 IndIPD=      2 C=  1.615361D-01  8.527636D-02                             NZ=T
 IS=     3 IAt=     2 ISR=     1 T=0 IP=      1 IndIP=      7 IndIPD=      0 C=  2.707814D+00  0.000000D+00                             NZ=T
 IS=     3 IAt=     2 ISR=     1 T=0 IP=      2 IndIP=      8 IndIPD=      1 C=  2.618880D+00  0.000000D+00                             NZ=T
 IS=     3 IAt=     2 ISR=     1 T=0 IP=      3 IndIP=      9 IndIPD=      2 C=  8.161906D-01  0.000000D+00                             NZ=T
 IS=     4 IAt=     2 ISR=     2 T=1 IP=      1 IndIP=     10 IndIPD=      0 C= -1.600172D-01  8.560445D-01                             NZ=T
 IS=     4 IAt=     2 ISR=     2 T=1 IP=      2 IndIP=     11 IndIPD=      1 C=  2.140359D-01  5.383038D-01                             NZ=T
 IS=     4 IAt=     2 ISR=     2 T=1 IP=      3 IndIP=     12 IndIPD=      2 C=  1.615361D-01  8.527636D-02                             NZ=T
 IS=     5 IAt=     3 ISR=     1 T=0 IP=      1 IndIP=     13 IndIPD=      0 C=  2.707814D+00  0.000000D+00                             NZ=T
 IS=     5 IAt=     3 ISR=     1 T=0 IP=      2 IndIP=     14 IndIPD=      1 C=  2.618880D+00  0.000000D+00                             NZ=T
 IS=     5 IAt=     3 ISR=     1 T=0 IP=      3 IndIP=     15 IndIPD=      2 C=  8.161906D-01  0.000000D+00                             NZ=T
 IS=     6 IAt=     3 ISR=     2 T=1 IP=      1 IndIP=     16 IndIPD=      0 C= -1.600172D-01  8.560445D-01                             NZ=T
 IS=     6 IAt=     3 ISR=     2 T=1 IP=      2 IndIP=     17 IndIPD=      1 C=  2.140359D-01  5.383038D-01                             NZ=T
 IS=     6 IAt=     3 ISR=     2 T=1 IP=      3 IndIP=     18 IndIPD=      2 C=  1.615361D-01  8.527636D-02                             NZ=T
 IS=     7 IAt=     4 ISR=     1 T=0 IP=      1 IndIP=     19 IndIPD=      0 C=  2.707814D+00  0.000000D+00                             NZ=T
 IS=     7 IAt=     4 ISR=     1 T=0 IP=      2 IndIP=     20 IndIPD=      1 C=  2.618880D+00  0.000000D+00                             NZ=T
 IS=     7 IAt=     4 ISR=     1 T=0 IP=      3 IndIP=     21 IndIPD=      2 C=  8.161906D-01  0.000000D+00                             NZ=T
 IS=     8 IAt=     4 ISR=     2 T=1 IP=      1 IndIP=     22 IndIPD=      0 C= -1.600172D-01  8.560445D-01                             NZ=T
 IS=     8 IAt=     4 ISR=     2 T=1 IP=      2 IndIP=     23 IndIPD=      1 C=  2.140359D-01  5.383038D-01                             NZ=T
 IS=     8 IAt=     4 ISR=     2 T=1 IP=      3 IndIP=     24 IndIPD=      2 C=  1.615361D-01  8.527636D-02                             NZ=T
 IS=     9 IAt=     5 ISR=     1 T=0 IP=      1 IndIP=     25 IndIPD=      0 C=  2.707814D+00  0.000000D+00                             NZ=T
 IS=     9 IAt=     5 ISR=     1 T=0 IP=      2 IndIP=     26 IndIPD=      1 C=  2.618880D+00  0.000000D+00                             NZ=T
 IS=     9 IAt=     5 ISR=     1 T=0 IP=      3 IndIP=     27 IndIPD=      2 C=  8.161906D-01  0.000000D+00                             NZ=T
 IS=    10 IAt=     5 ISR=     2 T=1 IP=      1 IndIP=     28 IndIPD=      0 C= -1.600172D-01  8.560445D-01                             NZ=T
 IS=    10 IAt=     5 ISR=     2 T=1 IP=      2 IndIP=     29 IndIPD=      1 C=  2.140359D-01  5.383038D-01                             NZ=T
 IS=    10 IAt=     5 ISR=     2 T=1 IP=      3 IndIP=     30 IndIPD=      2 C=  1.615361D-01  8.527636D-02                             NZ=T
 IS=    11 IAt=     6 ISR=     1 T=0 IP=      1 IndIP=     31 IndIPD=      0 C=  2.707814D+00  0.000000D+00                             NZ=T
 IS=    11 IAt=     6 ISR=     1 T=0 IP=      2 IndIP=     32 IndIPD=      1 C=  2.618880D+00  0.000000D+00                             NZ=T
 IS=    11 IAt=     6 ISR=     1 T=0 IP=      3 IndIP=     33 IndIPD=      2 C=  8.161906D-01  0.000000D+00                             NZ=T
 IS=    12 IAt=     6 ISR=     2 T=1 IP=      1 IndIP=     34 IndIPD=      0 C= -1.600172D-01  8.560445D-01                             NZ=T
 IS=    12 IAt=     6 ISR=     2 T=1 IP=      2 IndIP=     35 IndIPD=      1 C=  2.140359D-01  5.383038D-01                             NZ=T
 IS=    12 IAt=     6 ISR=     2 T=1 IP=      3 IndIP=     36 IndIPD=      2 C=  1.615361D-01  8.527636D-02                             NZ=T
 IS=    13 IAt=     7 ISR=     1 T=0 IP=      1 IndIP=     37 IndIPD=      0 C=  2.769344D-01  0.000000D+00                             NZ=T
 IS=    13 IAt=     7 ISR=     1 T=0 IP=      2 IndIP=     38 IndIPD=      1 C=  2.678389D-01  0.000000D+00                             NZ=T
 IS=    13 IAt=     7 ISR=     1 T=0 IP=      3 IndIP=     39 IndIPD=      2 C=  8.347367D-02  0.000000D+00                             NZ=T
 IS=    14 IAt=     8 ISR=     1 T=0 IP=      1 IndIP=     40 IndIPD=      0 C=  2.769344D-01  0.000000D+00                             NZ=T
 IS=    14 IAt=     8 ISR=     1 T=0 IP=      2 IndIP=     41 IndIPD=      1 C=  2.678389D-01  0.000000D+00                             NZ=T
 IS=    14 IAt=     8 ISR=     1 T=0 IP=      3 IndIP=     42 IndIPD=      2 C=  8.347367D-02  0.000000D+00                             NZ=T
 IS=    15 IAt=     9 ISR=     1 T=0 IP=      1 IndIP=     43 IndIPD=      0 C=  2.769344D-01  0.000000D+00                             NZ=T
 IS=    15 IAt=     9 ISR=     1 T=0 IP=      2 IndIP=     44 IndIPD=      1 C=  2.678389D-01  0.000000D+00                             NZ=T
 IS=    15 IAt=     9 ISR=     1 T=0 IP=      3 IndIP=     45 IndIPD=      2 C=  8.347367D-02  0.000000D+00                             NZ=T
 IS=    16 IAt=    10 ISR=     1 T=0 IP=      1 IndIP=     46 IndIPD=      0 C=  2.769344D-01  0.000000D+00                             NZ=T
 IS=    16 IAt=    10 ISR=     1 T=0 IP=      2 IndIP=     47 IndIPD=      1 C=  2.678389D-01  0.000000D+00                             NZ=T
 IS=    16 IAt=    10 ISR=     1 T=0 IP=      3 IndIP=     48 IndIPD=      2 C=  8.347367D-02  0.000000D+00                             NZ=T
 IS=    17 IAt=    11 ISR=     1 T=0 IP=      1 IndIP=     49 IndIPD=      0 C=  3.454881D+00  0.000000D+00                             NZ=T
 IS=    17 IAt=    11 ISR=     1 T=0 IP=      2 IndIP=     50 IndIPD=      1 C=  3.341410D+00  0.000000D+00                             NZ=T
 IS=    17 IAt=    11 ISR=     1 T=0 IP=      3 IndIP=     51 IndIPD=      2 C=  1.041372D+00  0.000000D+00                             NZ=T
 IS=    18 IAt=    11 ISR=     2 T=1 IP=      1 IndIP=     52 IndIPD=      0 C= -1.931639D-01  1.171553D+00                             NZ=T
 IS=    18 IAt=    11 ISR=     2 T=1 IP=      2 IndIP=     53 IndIPD=      1 C=  2.583723D-01  7.367037D-01                             NZ=T
 IS=    18 IAt=    11 ISR=     2 T=1 IP=      3 IndIP=     54 IndIPD=      2 C=  1.949974D-01  1.167062D-01                             NZ=T
 IS=    19 IAt=    12 ISR=     1 T=0 IP=      1 IndIP=     55 IndIPD=      0 C=  2.769344D-01  0.000000D+00                             NZ=T
 IS=    19 IAt=    12 ISR=     1 T=0 IP=      2 IndIP=     56 IndIPD=      1 C=  2.678389D-01  0.000000D+00                             NZ=T
 IS=    19 IAt=    12 ISR=     1 T=0 IP=      3 IndIP=     57 IndIPD=      2 C=  8.347367D-02  0.000000D+00                             NZ=T
 IS=    20 IAt=    13 ISR=     1 T=0 IP=      1 IndIP=     58 IndIPD=      0 C=  2.769344D-01  0.000000D+00                             NZ=T
 IS=    20 IAt=    13 ISR=     1 T=0 IP=      2 IndIP=     59 IndIPD=      1 C=  2.678389D-01  0.000000D+00                             NZ=T
 IS=    20 IAt=    13 ISR=     1 T=0 IP=      3 IndIP=     60 IndIPD=      2 C=  8.347367D-02  0.000000D+00                             NZ=T
 IS=    21 IAt=    14 ISR=     1 T=0 IP=      1 IndIP=     61 IndIPD=      0 C=  3.454881D+00  0.000000D+00                             NZ=T
 IS=    21 IAt=    14 ISR=     1 T=0 IP=      2 IndIP=     62 IndIPD=      1 C=  3.341410D+00  0.000000D+00                             NZ=T
 IS=    21 IAt=    14 ISR=     1 T=0 IP=      3 IndIP=     63 IndIPD=      2 C=  1.041372D+00  0.000000D+00                             NZ=T
 IS=    22 IAt=    14 ISR=     2 T=1 IP=      1 IndIP=     64 IndIPD=      0 C= -1.931639D-01  1.171553D+00                             NZ=T
 IS=    22 IAt=    14 ISR=     2 T=1 IP=      2 IndIP=     65 IndIPD=      1 C=  2.583723D-01  7.367037D-01                             NZ=T
 IS=    22 IAt=    14 ISR=     2 T=1 IP=      3 IndIP=     66 IndIPD=      2 C=  1.949974D-01  1.167062D-01                             NZ=T
 IS=    23 IAt=    15 ISR=     1 T=0 IP=      1 IndIP=     67 IndIPD=      0 C=  4.251943D+00  0.000000D+00                             NZ=T
 IS=    23 IAt=    15 ISR=     1 T=0 IP=      2 IndIP=     68 IndIPD=      1 C=  4.112294D+00  0.000000D+00                             NZ=T
 IS=    23 IAt=    15 ISR=     1 T=0 IP=      3 IndIP=     69 IndIPD=      2 C=  1.281623D+00  0.000000D+00                             NZ=T
 IS=    24 IAt=    15 ISR=     2 T=1 IP=      1 IndIP=     70 IndIPD=      0 C= -2.394130D-01  1.675450D+00                             NZ=T
 IS=    24 IAt=    15 ISR=     2 T=1 IP=      2 IndIP=     71 IndIPD=      1 C=  3.202342D-01  1.053568D+00                             NZ=T
 IS=    24 IAt=    15 ISR=     2 T=1 IP=      3 IndIP=     72 IndIPD=      2 C=  2.416856D-01  1.669029D-01                             NZ=T
 IS=    25 IAt=    16 ISR=     1 T=0 IP=      1 IndIP=     73 IndIPD=      0 C=  4.251943D+00  0.000000D+00                             NZ=T
 IS=    25 IAt=    16 ISR=     1 T=0 IP=      2 IndIP=     74 IndIPD=      1 C=  4.112294D+00  0.000000D+00                             NZ=T
 IS=    25 IAt=    16 ISR=     1 T=0 IP=      3 IndIP=     75 IndIPD=      2 C=  1.281623D+00  0.000000D+00                             NZ=T
 IS=    26 IAt=    16 ISR=     2 T=1 IP=      1 IndIP=     76 IndIPD=      0 C= -2.394130D-01  1.675450D+00                             NZ=T
 IS=    26 IAt=    16 ISR=     2 T=1 IP=      2 IndIP=     77 IndIPD=      1 C=  3.202342D-01  1.053568D+00                             NZ=T
 IS=    26 IAt=    16 ISR=     2 T=1 IP=      3 IndIP=     78 IndIPD=      2 C=  2.416856D-01  1.669029D-01                             NZ=T
 IS=    27 IAt=    17 ISR=     1 T=0 IP=      1 IndIP=     79 IndIPD=      0 C=  2.707814D+00  0.000000D+00                             NZ=T
 IS=    27 IAt=    17 ISR=     1 T=0 IP=      2 IndIP=     80 IndIPD=      1 C=  2.618880D+00  0.000000D+00                             NZ=T
 IS=    27 IAt=    17 ISR=     1 T=0 IP=      3 IndIP=     81 IndIPD=      2 C=  8.161906D-01  0.000000D+00                             NZ=T
 IS=    28 IAt=    17 ISR=     2 T=1 IP=      1 IndIP=     82 IndIPD=      0 C= -1.600172D-01  8.560445D-01                             NZ=T
 IS=    28 IAt=    17 ISR=     2 T=1 IP=      2 IndIP=     83 IndIPD=      1 C=  2.140359D-01  5.383038D-01                             NZ=T
 IS=    28 IAt=    17 ISR=     2 T=1 IP=      3 IndIP=     84 IndIPD=      2 C=  1.615361D-01  8.527636D-02                             NZ=T
 IS=    29 IAt=    18 ISR=     1 T=0 IP=      1 IndIP=     85 IndIPD=      0 C=  2.707814D+00  0.000000D+00                             NZ=T
 IS=    29 IAt=    18 ISR=     1 T=0 IP=      2 IndIP=     86 IndIPD=      1 C=  2.618880D+00  0.000000D+00                             NZ=T
 IS=    29 IAt=    18 ISR=     1 T=0 IP=      3 IndIP=     87 IndIPD=      2 C=  8.161906D-01  0.000000D+00                             NZ=T
 IS=    30 IAt=    18 ISR=     2 T=1 IP=      1 IndIP=     88 IndIPD=      0 C= -1.600172D-01  8.560445D-01                             NZ=T
 IS=    30 IAt=    18 ISR=     2 T=1 IP=      2 IndIP=     89 IndIPD=      1 C=  2.140359D-01  5.383038D-01                             NZ=T
 IS=    30 IAt=    18 ISR=     2 T=1 IP=      3 IndIP=     90 IndIPD=      2 C=  1.615361D-01  8.527636D-02                             NZ=T
 IS=    31 IAt=    19 ISR=     1 T=0 IP=      1 IndIP=     91 IndIPD=      0 C=  2.707814D+00  0.000000D+00                             NZ=T
 IS=    31 IAt=    19 ISR=     1 T=0 IP=      2 IndIP=     92 IndIPD=      1 C=  2.618880D+00  0.000000D+00                             NZ=T
 IS=    31 IAt=    19 ISR=     1 T=0 IP=      3 IndIP=     93 IndIPD=      2 C=  8.161906D-01  0.000000D+00                             NZ=T
 IS=    32 IAt=    19 ISR=     2 T=1 IP=      1 IndIP=     94 IndIPD=      0 C= -1.600172D-01  8.560445D-01                             NZ=T
 IS=    32 IAt=    19 ISR=     2 T=1 IP=      2 IndIP=     95 IndIPD=      1 C=  2.140359D-01  5.383038D-01                             NZ=T
 IS=    32 IAt=    19 ISR=     2 T=1 IP=      3 IndIP=     96 IndIPD=      2 C=  1.615361D-01  8.527636D-02                             NZ=T
 IS=    33 IAt=    20 ISR=     1 T=0 IP=      1 IndIP=     97 IndIPD=      0 C=  2.707814D+00  0.000000D+00                             NZ=T
 IS=    33 IAt=    20 ISR=     1 T=0 IP=      2 IndIP=     98 IndIPD=      1 C=  2.618880D+00  0.000000D+00                             NZ=T
 IS=    33 IAt=    20 ISR=     1 T=0 IP=      3 IndIP=     99 IndIPD=      2 C=  8.161906D-01  0.000000D+00                             NZ=T
 IS=    34 IAt=    20 ISR=     2 T=1 IP=      1 IndIP=    100 IndIPD=      0 C= -1.600172D-01  8.560445D-01                             NZ=T
 IS=    34 IAt=    20 ISR=     2 T=1 IP=      2 IndIP=    101 IndIPD=      1 C=  2.140359D-01  5.383038D-01                             NZ=T
 IS=    34 IAt=    20 ISR=     2 T=1 IP=      3 IndIP=    102 IndIPD=      2 C=  1.615361D-01  8.527636D-02                             NZ=T
 IS=    35 IAt=    21 ISR=     1 T=0 IP=      1 IndIP=    103 IndIPD=      0 C=  2.707814D+00  0.000000D+00                             NZ=T
 IS=    35 IAt=    21 ISR=     1 T=0 IP=      2 IndIP=    104 IndIPD=      1 C=  2.618880D+00  0.000000D+00                             NZ=T
 IS=    35 IAt=    21 ISR=     1 T=0 IP=      3 IndIP=    105 IndIPD=      2 C=  8.161906D-01  0.000000D+00                             NZ=T
 IS=    36 IAt=    21 ISR=     2 T=1 IP=      1 IndIP=    106 IndIPD=      0 C= -1.600172D-01  8.560445D-01                             NZ=T
 IS=    36 IAt=    21 ISR=     2 T=1 IP=      2 IndIP=    107 IndIPD=      1 C=  2.140359D-01  5.383038D-01                             NZ=T
 IS=    36 IAt=    21 ISR=     2 T=1 IP=      3 IndIP=    108 IndIPD=      2 C=  1.615361D-01  8.527636D-02                             NZ=T
 IS=    37 IAt=    22 ISR=     1 T=0 IP=      1 IndIP=    109 IndIPD=      0 C=  2.707814D+00  0.000000D+00                             NZ=T
 IS=    37 IAt=    22 ISR=     1 T=0 IP=      2 IndIP=    110 IndIPD=      1 C=  2.618880D+00  0.000000D+00                             NZ=T
 IS=    37 IAt=    22 ISR=     1 T=0 IP=      3 IndIP=    111 IndIPD=      2 C=  8.161906D-01  0.000000D+00                             NZ=T
 IS=    38 IAt=    22 ISR=     2 T=1 IP=      1 IndIP=    112 IndIPD=      0 C= -1.600172D-01  8.560445D-01                             NZ=T
 IS=    38 IAt=    22 ISR=     2 T=1 IP=      2 IndIP=    113 IndIPD=      1 C=  2.140359D-01  5.383038D-01                             NZ=T
 IS=    38 IAt=    22 ISR=     2 T=1 IP=      3 IndIP=    114 IndIPD=      2 C=  1.615361D-01  8.527636D-02                             NZ=T
 IS=    39 IAt=    23 ISR=     1 T=0 IP=      1 IndIP=    115 IndIPD=      0 C=  2.769344D-01  0.000000D+00                             NZ=T
 IS=    39 IAt=    23 ISR=     1 T=0 IP=      2 IndIP=    116 IndIPD=      1 C=  2.678389D-01  0.000000D+00                             NZ=T
 IS=    39 IAt=    23 ISR=     1 T=0 IP=      3 IndIP=    117 IndIPD=      2 C=  8.347367D-02  0.000000D+00                             NZ=T
 IS=    40 IAt=    24 ISR=     1 T=0 IP=      1 IndIP=    118 IndIPD=      0 C=  2.769344D-01  0.000000D+00                             NZ=T
 IS=    40 IAt=    24 ISR=     1 T=0 IP=      2 IndIP=    119 IndIPD=      1 C=  2.678389D-01  0.000000D+00                             NZ=T
 IS=    40 IAt=    24 ISR=     1 T=0 IP=      3 IndIP=    120 IndIPD=      2 C=  8.347367D-02  0.000000D+00                             NZ=T
 IS=    41 IAt=    25 ISR=     1 T=0 IP=      1 IndIP=    121 IndIPD=      0 C=  2.769344D-01  0.000000D+00                             NZ=T
 IS=    41 IAt=    25 ISR=     1 T=0 IP=      2 IndIP=    122 IndIPD=      1 C=  2.678389D-01  0.000000D+00                             NZ=T
 IS=    41 IAt=    25 ISR=     1 T=0 IP=      3 IndIP=    123 IndIPD=      2 C=  8.347367D-02  0.000000D+00                             NZ=T
 IS=    42 IAt=    26 ISR=     1 T=0 IP=      1 IndIP=    124 IndIPD=      0 C=  2.769344D-01  0.000000D+00                             NZ=T
 IS=    42 IAt=    26 ISR=     1 T=0 IP=      2 IndIP=    125 IndIPD=      1 C=  2.678389D-01  0.000000D+00                             NZ=T
 IS=    42 IAt=    26 ISR=     1 T=0 IP=      3 IndIP=    126 IndIPD=      2 C=  8.347367D-02  0.000000D+00                             NZ=T
 IS=    43 IAt=    27 ISR=     1 T=0 IP=      1 IndIP=    127 IndIPD=      0 C=  3.454881D+00  0.000000D+00                             NZ=T
 IS=    43 IAt=    27 ISR=     1 T=0 IP=      2 IndIP=    128 IndIPD=      1 C=  3.341410D+00  0.000000D+00                             NZ=T
 IS=    43 IAt=    27 ISR=     1 T=0 IP=      3 IndIP=    129 IndIPD=      2 C=  1.041372D+00  0.000000D+00                             NZ=T
 IS=    44 IAt=    27 ISR=     2 T=1 IP=      1 IndIP=    130 IndIPD=      0 C= -1.931639D-01  1.171553D+00                             NZ=T
 IS=    44 IAt=    27 ISR=     2 T=1 IP=      2 IndIP=    131 IndIPD=      1 C=  2.583723D-01  7.367037D-01                             NZ=T
 IS=    44 IAt=    27 ISR=     2 T=1 IP=      3 IndIP=    132 IndIPD=      2 C=  1.949974D-01  1.167062D-01                             NZ=T
 IS=    45 IAt=    28 ISR=     1 T=0 IP=      1 IndIP=    133 IndIPD=      0 C=  2.769344D-01  0.000000D+00                             NZ=T
 IS=    45 IAt=    28 ISR=     1 T=0 IP=      2 IndIP=    134 IndIPD=      1 C=  2.678389D-01  0.000000D+00                             NZ=T
 IS=    45 IAt=    28 ISR=     1 T=0 IP=      3 IndIP=    135 IndIPD=      2 C=  8.347367D-02  0.000000D+00                             NZ=T
 IS=    46 IAt=    29 ISR=     1 T=0 IP=      1 IndIP=    136 IndIPD=      0 C=  2.769344D-01  0.000000D+00                             NZ=T
 IS=    46 IAt=    29 ISR=     1 T=0 IP=      2 IndIP=    137 IndIPD=      1 C=  2.678389D-01  0.000000D+00                             NZ=T
 IS=    46 IAt=    29 ISR=     1 T=0 IP=      3 IndIP=    138 IndIPD=      2 C=  8.347367D-02  0.000000D+00                             NZ=T
 IS=    47 IAt=    30 ISR=     1 T=0 IP=      1 IndIP=    139 IndIPD=      0 C=  3.454881D+00  0.000000D+00                             NZ=T
 IS=    47 IAt=    30 ISR=     1 T=0 IP=      2 IndIP=    140 IndIPD=      1 C=  3.341410D+00  0.000000D+00                             NZ=T
 IS=    47 IAt=    30 ISR=     1 T=0 IP=      3 IndIP=    141 IndIPD=      2 C=  1.041372D+00  0.000000D+00                             NZ=T
 IS=    48 IAt=    30 ISR=     2 T=1 IP=      1 IndIP=    142 IndIPD=      0 C= -1.931639D-01  1.171553D+00                             NZ=T
 IS=    48 IAt=    30 ISR=     2 T=1 IP=      2 IndIP=    143 IndIPD=      1 C=  2.583723D-01  7.367037D-01                             NZ=T
 IS=    48 IAt=    30 ISR=     2 T=1 IP=      3 IndIP=    144 IndIPD=      2 C=  1.949974D-01  1.167062D-01                             NZ=T
 IS=    49 IAt=    31 ISR=     1 T=0 IP=      1 IndIP=    145 IndIPD=      0 C=  4.251943D+00  0.000000D+00                             NZ=T
 IS=    49 IAt=    31 ISR=     1 T=0 IP=      2 IndIP=    146 IndIPD=      1 C=  4.112294D+00  0.000000D+00                             NZ=T
 IS=    49 IAt=    31 ISR=     1 T=0 IP=      3 IndIP=    147 IndIPD=      2 C=  1.281623D+00  0.000000D+00                             NZ=T
 IS=    50 IAt=    31 ISR=     2 T=1 IP=      1 IndIP=    148 IndIPD=      0 C= -2.394130D-01  1.675450D+00                             NZ=T
 IS=    50 IAt=    31 ISR=     2 T=1 IP=      2 IndIP=    149 IndIPD=      1 C=  3.202342D-01  1.053568D+00                             NZ=T
 IS=    50 IAt=    31 ISR=     2 T=1 IP=      3 IndIP=    150 IndIPD=      2 C=  2.416856D-01  1.669029D-01                             NZ=T
 IS=    51 IAt=    32 ISR=     1 T=0 IP=      1 IndIP=    151 IndIPD=      0 C=  4.251943D+00  0.000000D+00                             NZ=T
 IS=    51 IAt=    32 ISR=     1 T=0 IP=      2 IndIP=    152 IndIPD=      1 C=  4.112294D+00  0.000000D+00                             NZ=T
 IS=    51 IAt=    32 ISR=     1 T=0 IP=      3 IndIP=    153 IndIPD=      2 C=  1.281623D+00  0.000000D+00                             NZ=T
 IS=    52 IAt=    32 ISR=     2 T=1 IP=      1 IndIP=    154 IndIPD=      0 C= -2.394130D-01  1.675450D+00                             NZ=T
 IS=    52 IAt=    32 ISR=     2 T=1 IP=      2 IndIP=    155 IndIPD=      1 C=  3.202342D-01  1.053568D+00                             NZ=T
 IS=    52 IAt=    32 ISR=     2 T=1 IP=      3 IndIP=    156 IndIPD=      2 C=  2.416856D-01  1.669029D-01                             NZ=T
 IExCor=  402 DFT=T Ex+Corr=B3LYP ExCW=0 ScaHFX=  0.200000
 ScaDFX=  0.800000  0.720000  1.000000  0.810000 ScalE2=  1.000000  1.000000
 IRadAn=      5 IRanWt=     -1 IRanGd=            0 ICorTp=0 IEmpDi=  4
 NAtoms=   32 NActive=   32 NUniq=   32 SFac= 1.00D+00 NAtFMM=   60 NAOKFM=F Big=F
 Integral buffers will be    131072 words long.
 Raffenetti 2 integral format.
 Two-electron integral symmetry is turned off.
 NPDir=0 NMtPBC=     1 NCelOv=     1 NCel=       1 NClECP=     1 NCelD=      1
         NCelK=      1 NCelE2=     1 NClLst=     1 CellRange=     0.0.
 One-electron integrals computed using PRISM.
 Entering OneElI...
 Calculate overlap and kinetic energy integrals
    NBasis = 112  MinDer = 0  MaxDer = 0
 Requested accuracy = 0.1000D-12
 PrmmSu-InSpLW:  IPartL=    0 NPrtUS=    1 NPrtUL=    1 DoSpLW=F IThBeg=    0 IThEnd=    0 NThAct=    1.
 PrSmSu:  IncTry=   512 NBBP=           1278 NTPThr=   100 NPartT=    1 Incr=          12 LDynOK=F GPUOK=F.
 PrsmSu:  NPrtUS=   1 ThrOK=F IAlg=2 LenDen=           0 ISkipM=0 DoSpLW=F IThBeg=    0 IThEnd=    0.
 Prism:   IPart=     0 DynPar=F LinDyn=F Incr=          12.
 PRISM was handed   536689765 working-precision words and  1278 shell-pairs
 IPart=  0 NShTot=        1278 NBatch=          20 AvBLen=        63.9
 PrSmSu:  NxtVal=             13.
 *** Overlap *** 
                1             2             3             4             5 
      1  0.100000D+01
      2  0.248362D+00  0.100000D+01
      3  0.000000D+00  0.000000D+00  0.100000D+01
      4  0.000000D+00  0.000000D+00  0.000000D+00  0.100000D+01
      5  0.000000D+00  0.000000D+00  0.000000D+00  0.000000D+00  0.100000D+01
      6  0.000000D+00  0.369671D-01  0.305329D-01 -0.531548D-01 -0.754223D-04
      7  0.369671D-01  0.361613D+00  0.192108D+00 -0.334441D+00 -0.474544D-03
      8 -0.305329D-01 -0.192108D+00  0.771241D-01  0.232526D+00  0.329936D-03
      9  0.531548D-01  0.334441D+00  0.232526D+00 -0.194115D+00 -0.574386D-03
     10  0.754223D-04  0.474544D-03  0.329936D-03 -0.574386D-03  0.210690D+00
     11  0.000000D+00  0.184848D-02  0.367121D-02 -0.214959D-02 -0.130164D-04
     12  0.184848D-02  0.613897D-01  0.779167D-01 -0.456223D-01 -0.276257D-03
     13 -0.367121D-02 -0.779167D-01 -0.834846D-01  0.639392D-01  0.387170D-03
     14  0.214959D-02  0.456223D-01  0.639392D-01 -0.117234D-01 -0.226699D-03
     15  0.130164D-04  0.276257D-03  0.387170D-03 -0.226699D-03  0.257134D-01
     16  0.000000D+00  0.384816D-03  0.102897D-02  0.000000D+00 -0.127711D-05
     17  0.384816D-03  0.250318D-01  0.404042D-01  0.000000D+00 -0.501478D-04
     18 -0.102897D-02 -0.404042D-01 -0.606263D-01  0.124915D-05  0.871908D-04
     19  0.000000D+00  0.000000D+00  0.124915D-05  0.962351D-02  0.000000D+00
     20  0.127711D-05  0.501478D-04  0.871908D-04  0.000000D+00  0.962340D-02
     21  0.000000D+00  0.184883D-02  0.367193D-02  0.214979D-02 -0.129661D-04
     22  0.184883D-02  0.613965D-01  0.779263D-01  0.456233D-01 -0.275168D-03
     23 -0.367193D-02 -0.779263D-01 -0.834968D-01 -0.639416D-01  0.385651D-03
     24 -0.214979D-02 -0.456233D-01 -0.639416D-01 -0.117178D-01  0.225786D-03
     25  0.129661D-04  0.275168D-03  0.385651D-03  0.225786D-03  0.257165D-01
     26  0.000000D+00  0.369711D-01  0.305363D-01  0.531605D-01 -0.719445D-04
     27  0.369711D-01  0.361635D+00  0.192117D+00  0.334455D+00 -0.452634D-03
     28 -0.305363D-01 -0.192117D+00  0.771356D-01 -0.232535D+00  0.314701D-03
     29 -0.531605D-01 -0.334455D+00 -0.232535D+00 -0.194111D+00  0.547861D-03
     30  0.719445D-04  0.452634D-03  0.314701D-03  0.547861D-03  0.210707D+00
     31  0.511006D-02  0.932359D-01  0.807688D-02 -0.120673D+00 -0.294169D-04
     32  0.932630D-04  0.650512D-02  0.828244D-02 -0.689752D-02 -0.215920D-04
     33  0.932923D-04  0.650641D-02  0.828394D-02  0.689882D-02 -0.217230D-04
     34  0.511027D-02  0.932386D-01  0.808047D-02  0.120676D+00 -0.172067D-04
     35  0.000000D+00  0.000000D+00  0.000000D+00  0.000000D+00  0.000000D+00
     36  0.000000D+00  0.195360D-03  0.464843D-03  0.000000D+00  0.673497D-05
     37  0.000000D+00 -0.413615D-03 -0.932866D-03  0.000000D+00 -0.144182D-04
     38  0.000000D+00  0.000000D+00  0.000000D+00  0.622696D-04  0.000000D+00
     39  0.000000D+00 -0.599274D-05 -0.144182D-04  0.000000D+00  0.620607D-04
     40  0.000000D+00  0.141439D-03  0.290794D-03 -0.526846D-04 -0.915502D-05
     41  0.000000D+00  0.141450D-03  0.290816D-03  0.526900D-04 -0.911958D-05
     42  0.000000D+00  0.241369D-01 -0.402315D-01 -0.108888D-05  0.536275D-04
     43  0.228992D-01  0.283013D+00 -0.344952D+00 -0.933628D-05  0.459812D-03
     44  0.393437D-01  0.299482D+00 -0.305851D+00 -0.124204D-04  0.611705D-03
     45  0.106485D-05  0.810562D-05 -0.124204D-04  0.153052D+00  0.000000D+00
     46 -0.524440D-04 -0.399202D-03  0.611705D-03  0.000000D+00  0.153051D+00
     47  0.000000D+00  0.159143D-02 -0.319742D-02  0.162876D-02  0.326908D-05
     48  0.262041D-03  0.386266D-01 -0.578646D-01  0.294761D-01  0.591614D-04
     49  0.649384D-03  0.460531D-01 -0.602634D-01  0.382520D-01  0.767754D-04
     50 -0.330795D-03 -0.234594D-01  0.382520D-01 -0.465638D-02 -0.391092D-04
     51  0.000000D+00 -0.470852D-04  0.767754D-04 -0.391092D-04  0.148290D-01
     52  0.000000D+00  0.159106D-02 -0.319671D-02 -0.162857D-02  0.357813D-05
     53  0.261945D-03  0.386204D-01 -0.578549D-01 -0.294744D-01  0.647580D-04
     54  0.649148D-03  0.460455D-01 -0.602527D-01 -0.382494D-01  0.840374D-04
     55  0.330711D-03  0.234581D-01 -0.382494D-01 -0.465979D-02  0.428131D-04
     56  0.000000D+00 -0.515395D-04  0.840374D-04  0.428131D-04  0.148264D-01
     57  0.999964D+00  0.248363D+00  0.203514D-02 -0.502285D-05  0.132958D-05
     58  0.248363D+00  0.999999D+00  0.129829D-02 -0.320425D-05  0.000000D+00
     59 -0.203514D-02 -0.129829D-02  0.999994D+00  0.000000D+00  0.000000D+00
     60  0.502285D-05  0.320425D-05  0.000000D+00  0.999998D+00  0.000000D+00
     61 -0.132958D-05  0.000000D+00  0.000000D+00  0.000000D+00  0.999998D+00
     62  0.000000D+00  0.370570D-01  0.303206D-01 -0.534461D-01 -0.759383D-04
     63  0.370570D-01  0.362116D+00  0.190495D+00 -0.335785D+00 -0.477096D-03
     64 -0.303206D-01 -0.190495D+00  0.798900D-01  0.231245D+00  0.328562D-03
     65  0.534461D-01  0.335785D+00  0.231245D+00 -0.196536D+00 -0.579154D-03
     66  0.759383D-04  0.477096D-03  0.328562D-03 -0.579154D-03  0.211077D+00
     67  0.000000D+00  0.180749D-02  0.359992D-02 -0.210496D-02 -0.128485D-04
     68  0.180749D-02  0.605967D-01  0.770549D-01 -0.450558D-01 -0.275018D-03
     69 -0.359992D-02 -0.770549D-01 -0.827990D-01  0.632347D-01  0.385981D-03
     70  0.210496D-02  0.450558D-01  0.632347D-01 -0.116292D-01 -0.225692D-03
     71  0.128485D-04  0.275018D-03  0.385981D-03 -0.225692D-03  0.253443D-01
     72  0.000000D+00  0.389796D-03  0.104117D-02  0.000000D+00 -0.125646D-05
     73  0.389796D-03  0.252140D-01  0.406712D-01  0.000000D+00 -0.490812D-04
     74 -0.104117D-02 -0.406712D-01 -0.609789D-01  0.129083D-05  0.852932D-04
     75  0.000000D+00  0.000000D+00  0.129083D-05  0.969930D-02  0.000000D+00
     76  0.125646D-05  0.490812D-04  0.852932D-04  0.000000D+00  0.969920D-02
     77  0.000000D+00  0.180784D-02  0.360063D-02  0.210517D-02 -0.127987D-04
     78  0.180784D-02  0.606034D-01  0.770644D-01  0.450570D-01 -0.273930D-03
     79 -0.360063D-02 -0.770644D-01 -0.828109D-01 -0.632373D-01  0.384460D-03
     80 -0.210517D-02 -0.450570D-01 -0.632373D-01 -0.116240D-01  0.224781D-03
     81  0.127987D-04  0.273930D-03  0.384460D-03  0.224781D-03  0.253474D-01
     82  0.000000D+00  0.370608D-01  0.303240D-01  0.534514D-01 -0.724317D-04
     83  0.370608D-01  0.362138D+00  0.190504D+00  0.335797D+00 -0.455037D-03
     84 -0.303240D-01 -0.190504D+00  0.798997D-01 -0.231254D+00  0.313371D-03
     85 -0.534514D-01 -0.335797D+00 -0.231254D+00 -0.196532D+00  0.552372D-03
     86  0.724317D-04  0.455037D-03  0.313371D-03  0.552372D-03  0.211094D+00
     87  0.513554D-02  0.935692D-01  0.832978D-02 -0.121034D+00 -0.276179D-04
     88  0.933671D-04  0.650968D-02  0.829193D-02 -0.689713D-02 -0.210878D-04
     89  0.934018D-04  0.651120D-02  0.829374D-02  0.689861D-02 -0.212148D-04
     90  0.513559D-02  0.935699D-01  0.833247D-02  0.121034D+00 -0.154307D-04
     91  0.000000D+00  0.000000D+00  0.000000D+00  0.000000D+00  0.000000D+00
     92  0.000000D+00  0.196345D-03  0.467049D-03  0.000000D+00  0.696684D-05
     93  0.000000D+00 -0.415584D-03 -0.937017D-03  0.000000D+00 -0.149108D-04
     94  0.000000D+00  0.000000D+00  0.000000D+00  0.625869D-04  0.000000D+00
     95  0.000000D+00 -0.619915D-05 -0.149108D-04  0.000000D+00  0.623645D-04
     96  0.000000D+00  0.124340D-03  0.256974D-03 -0.489150D-04 -0.870960D-05
     97  0.000000D+00  0.124354D-03  0.257002D-03  0.489215D-04 -0.867745D-05
     98  0.000000D+00  0.256597D-01 -0.426854D-01 -0.121321D-05  0.574789D-04
     99  0.246456D-01  0.294374D+00 -0.355447D+00 -0.101025D-04  0.478635D-03
    100  0.420620D-01  0.308260D+00 -0.310084D+00 -0.133869D-04  0.634242D-03
    101  0.119549D-05  0.876139D-05 -0.133869D-04  0.160921D+00  0.000000D+00
    102 -0.566395D-04 -0.415095D-03  0.634242D-03  0.000000D+00  0.160920D+00
    103  0.000000D+00  0.150154D-02 -0.303256D-02  0.155664D-02  0.309533D-05
    104  0.238564D-03  0.370828D-01 -0.556857D-01  0.285839D-01  0.568382D-04
    105  0.594317D-03  0.443451D-01 -0.581992D-01  0.371541D-01  0.738799D-04
    106 -0.305067D-03 -0.227627D-01  0.371541D-01 -0.488898D-02 -0.379231D-04
    107  0.000000D+00 -0.452629D-04  0.738799D-04 -0.379231D-04  0.141824D-01
    108  0.000000D+00  0.150122D-02 -0.303190D-02 -0.155647D-02  0.339055D-05
    109  0.238479D-03  0.370771D-01 -0.556767D-01 -0.285823D-01  0.622627D-04
    110  0.594108D-03  0.443381D-01 -0.581892D-01 -0.371517D-01  0.809299D-04
    111  0.304993D-03  0.227615D-01 -0.371517D-01 -0.489217D-02  0.415464D-04
    112  0.000000D+00 -0.495828D-04  0.809299D-04  0.415464D-04  0.141800D-01
                6             7             8             9            10 
      6  0.100000D+01
      7  0.248362D+00  0.100000D+01
      8  0.000000D+00  0.000000D+00  0.100000D+01
      9  0.000000D+00  0.000000D+00  0.000000D+00  0.100000D+01
     10  0.000000D+00  0.000000D+00  0.000000D+00  0.000000D+00  0.100000D+01
     11  0.112977D-05  0.389780D-01  0.646136D-01 -0.550913D-04 -0.264251D-03
     12  0.389780D-01  0.372717D+00  0.393676D+00 -0.335658D-03 -0.161002D-02
     13 -0.646136D-01 -0.393676D+00 -0.328371D+00  0.466953D-03  0.223979D-02
     14  0.550913D-04  0.335658D-03  0.466953D-03  0.219294D+00 -0.190971D-05
     15  0.264251D-03  0.161002D-02  0.223979D-02 -0.190971D-05  0.219285D+00
     16  0.000000D+00  0.169907D-02  0.341777D-02  0.197339D-02 -0.284875D-05
     17  0.169907D-02  0.584635D-01  0.748925D-01  0.432423D-01 -0.624238D-04
     18 -0.341777D-02 -0.748925D-01 -0.813984D-01 -0.610619D-01  0.881479D-04
     19 -0.197339D-02 -0.432423D-01 -0.610619D-01 -0.109001D-01  0.508958D-04
     20  0.284875D-05  0.624238D-04  0.881479D-04  0.508958D-04  0.243564D-01
     21  0.000000D+00  0.396651D-03  0.522025D-03  0.920180D-03 -0.212360D-05
     22  0.396651D-03  0.254633D-01  0.202486D-01  0.356924D-01 -0.823713D-04
     23 -0.522025D-03 -0.202486D-01 -0.754791D-02 -0.305848D-01  0.705840D-04
     24 -0.920180D-03 -0.356924D-01 -0.305848D-01 -0.441091D-01  0.124419D-03
     25  0.212360D-05  0.823713D-04  0.705840D-04  0.124419D-03  0.980280D-02
     26  0.000000D+00  0.169789D-02  0.000000D+00  0.394412D-02  0.000000D+00
     27  0.169789D-02  0.584399D-01  0.000000D+00  0.864492D-01  0.283621D-05
     28  0.000000D+00  0.000000D+00  0.243456D-01  0.115620D-05  0.000000D+00
     29 -0.394412D-02 -0.864492D-01  0.115620D-05 -0.116620D+00 -0.462479D-05
     30  0.000000D+00 -0.283621D-05  0.000000D+00 -0.462479D-05  0.243456D-01
     31  0.602174D-01  0.482502D+00 -0.232245D+00 -0.399714D+00  0.502306D-03
     32  0.553813D-02  0.987860D-01  0.113696D+00 -0.570145D-01 -0.302074D-03
     33  0.113300D-04  0.176754D-02  0.156760D-02  0.277753D-02 -0.419770D-05
     34  0.831050D-04  0.605099D-02 -0.162574D-02  0.994421D-02  0.416128D-05
     35  0.000000D+00  0.346205D-05  0.116265D-04  0.406334D-05  0.000000D+00
     36  0.000000D+00  0.113561D-02  0.228942D-02  0.800128D-03  0.409656D-04
     37 -0.137818D-05 -0.204997D-02 -0.385978D-02 -0.147930D-02 -0.757383D-04
     38  0.000000D+00 -0.716442D-03 -0.147930D-02 -0.144022D-03 -0.264697D-04
     39  0.000000D+00 -0.366810D-04 -0.757383D-04 -0.264697D-04  0.371621D-03
     40  0.793201D-05  0.142255D-02  0.258845D-02  0.244545D-03 -0.947638D-04
     41  0.000000D+00  0.336088D-03  0.593569D-03  0.309173D-03 -0.216439D-04
     42  0.000000D+00  0.102853D-02 -0.216082D-02  0.120944D-02  0.367039D-05
     43  0.456287D-03  0.363638D-01 -0.517248D-01  0.289512D-01  0.878604D-04
     44  0.105688D-02  0.465503D-01 -0.576393D-01  0.402740D-01  0.122223D-03
     45 -0.591550D-03 -0.260549D-01  0.402740D-01 -0.822687D-02 -0.684098D-04
     46 -0.179522D-05 -0.790710D-04  0.122223D-03 -0.684098D-04  0.143149D-01
     47  0.000000D+00  0.508525D-05 -0.136525D-04  0.112146D-04  0.000000D+00
     48  0.000000D+00  0.800794D-03 -0.142364D-02  0.116942D-02  0.197778D-05
     49  0.000000D+00  0.112087D-02 -0.177647D-02  0.166944D-02  0.282344D-05
     50  0.000000D+00 -0.920710D-03  0.166944D-02 -0.111543D-02 -0.231925D-05
     51  0.000000D+00 -0.155715D-05  0.282344D-05 -0.231925D-05  0.255886D-03
     52  0.000000D+00  0.267709D-03 -0.719150D-03  0.436702D-04  0.105110D-05
     53  0.147745D-04  0.112898D-01 -0.211967D-01  0.128716D-02  0.309809D-04
     54  0.488893D-04  0.169817D-01 -0.296686D-01  0.204209D-02  0.491513D-04
     55 -0.296879D-05 -0.103121D-02  0.204209D-02  0.383606D-02 -0.298470D-05
     56  0.000000D+00 -0.248203D-04  0.491513D-04 -0.298470D-05  0.396000D-02
     57  0.000000D+00  0.370283D-01 -0.305379D-01  0.532680D-01  0.756224D-04
     58  0.370283D-01  0.361956D+00 -0.191949D+00  0.334821D+00  0.475332D-03
     59  0.305379D-01  0.191949D+00  0.777099D-01  0.232422D+00  0.329961D-03
     60 -0.532680D-01 -0.334821D+00  0.232422D+00 -0.194466D+00 -0.575559D-03
     61 -0.756224D-04 -0.475332D-03  0.329961D-03 -0.575559D-03  0.210954D+00
     62  0.998909D+00  0.248368D+00 -0.103980D-01 -0.421734D-02 -0.945260D-05
     63  0.248368D+00  0.999968D+00 -0.663461D-02 -0.269094D-02 -0.603138D-05
     64  0.103980D-01  0.663461D-02  0.999834D+00 -0.424283D-04  0.000000D+00
     65  0.421734D-02  0.269094D-02 -0.424283D-04  0.999922D+00  0.000000D+00
     66  0.945260D-05  0.603138D-05  0.000000D+00  0.000000D+00  0.999939D+00
     67  0.101687D-05  0.384214D-01  0.636939D-01 -0.138425D-03 -0.262598D-03
     68  0.384214D-01  0.369676D+00  0.391508D+00 -0.850857D-03 -0.161412D-02
     69 -0.636939D-01 -0.391508D+00 -0.328230D+00  0.118477D-02  0.224757D-02
     70  0.138425D-03  0.850857D-03  0.118477D-02  0.216922D+00 -0.488461D-05
     71  0.262598D-03  0.161412D-02  0.224757D-02 -0.488461D-05  0.216915D+00
     72  0.000000D+00  0.171558D-02  0.344612D-02  0.199261D-02 -0.271257D-05
     73  0.171558D-02  0.587917D-01  0.752370D-01  0.435034D-01 -0.592219D-04
     74 -0.344612D-02 -0.752370D-01 -0.816465D-01 -0.613806D-01  0.835584D-04
     75 -0.199261D-02 -0.435034D-01 -0.613806D-01 -0.109831D-01  0.483150D-04
     76  0.271257D-05  0.592219D-04  0.835584D-04  0.483150D-04  0.245082D-01
     77  0.000000D+00  0.389020D-03  0.514199D-03  0.903149D-03 -0.210869D-05
     78  0.389020D-03  0.251857D-01  0.201023D-01  0.353081D-01 -0.824382D-04
     79 -0.514199D-03 -0.201023D-01 -0.759801D-02 -0.303606D-01  0.708867D-04
     80 -0.903149D-03 -0.353081D-01 -0.303606D-01 -0.436384D-01  0.124507D-03
     81  0.210869D-05  0.824382D-04  0.708867D-04  0.124507D-03  0.968722D-02
     82  0.000000D+00  0.168000D-02 -0.112914D-04  0.390703D-02  0.000000D+00
     83  0.168000D-02  0.580827D-01 -0.248489D-03  0.859815D-01  0.260625D-05
     84  0.112914D-04  0.248489D-03  0.241793D-01  0.405392D-03  0.000000D+00
     85 -0.390703D-02 -0.859815D-01  0.405392D-03 -0.116092D+00 -0.425192D-05
     86  0.000000D+00 -0.260625D-05  0.000000D+00 -0.425192D-05  0.241804D-01
     87  0.607682D-01  0.484732D+00 -0.232088D+00 -0.401378D+00  0.520063D-03
     88  0.553555D-02  0.987529D-01  0.113717D+00 -0.568906D-01 -0.292227D-03
     89  0.113814D-04  0.177243D-02  0.157295D-02  0.278402D-02 -0.407380D-05
     90  0.840430D-04  0.609372D-02 -0.162613D-02  0.100113D-01  0.428978D-05
     91  0.000000D+00  0.348668D-05  0.117047D-04  0.409225D-05  0.000000D+00
     92  0.000000D+00  0.114040D-02  0.229833D-02  0.803554D-03  0.423094D-04
     93 -0.138987D-05 -0.205798D-02 -0.387349D-02 -0.148523D-02 -0.782018D-04
     94  0.000000D+00 -0.719522D-03 -0.148523D-02 -0.144686D-03 -0.273413D-04
     95  0.000000D+00 -0.378849D-04 -0.782018D-04 -0.273413D-04  0.373149D-03
     96  0.701517D-05  0.132023D-02  0.241580D-02  0.197115D-03 -0.951924D-04
     97  0.000000D+00  0.287599D-03  0.510674D-03  0.270182D-03 -0.200453D-04
     98  0.000000D+00  0.111691D-02 -0.232004D-02  0.131351D-02  0.397190D-05
     99  0.505821D-03  0.383104D-01 -0.540642D-01  0.306090D-01  0.925578D-04
    100  0.115838D-02  0.486383D-01 -0.595429D-01  0.422909D-01  0.127882D-03
    101 -0.655830D-03 -0.275371D-01  0.422909D-01 -0.878870D-02 -0.724020D-04
    102 -0.198315D-05 -0.832687D-04  0.127882D-03 -0.724020D-04  0.151546D-01
    103  0.000000D+00  0.461969D-05 -0.124523D-04  0.102495D-04  0.000000D+00
    104  0.000000D+00  0.751682D-03 -0.134091D-02  0.110370D-02  0.185916D-05
    105  0.000000D+00  0.105522D-02 -0.167909D-02  0.157952D-02  0.266066D-05
    106  0.000000D+00 -0.868555D-03  0.157952D-02 -0.106022D-02 -0.219000D-05
    107  0.000000D+00 -0.146305D-05  0.266066D-05 -0.219000D-05  0.239892D-03
    108  0.000000D+00  0.256151D-03 -0.690857D-03  0.383571D-04  0.100828D-05
    109  0.137602D-04  0.109561D-01 -0.206291D-01  0.114535D-02  0.301073D-04
    110  0.457128D-04  0.165260D-01 -0.289646D-01  0.182116D-02  0.478718D-04
    111 -0.253803D-05 -0.917544D-03  0.182116D-02  0.373540D-02 -0.265790D-05
    112  0.000000D+00 -0.241190D-04  0.478718D-04 -0.265790D-05  0.383644D-02
               11            12            13            14            15 
     11  0.100000D+01
     12  0.248362D+00  0.100000D+01
     13  0.000000D+00  0.000000D+00  0.100000D+01
     14  0.000000D+00  0.000000D+00  0.000000D+00  0.100000D+01
     15  0.000000D+00  0.000000D+00  0.000000D+00  0.000000D+00  0.100000D+01
     16  0.000000D+00  0.356769D-01  0.303091D-01  0.508367D-01  0.162462D-03
     17  0.356769D-01  0.354315D+00  0.194762D+00  0.326670D+00  0.104396D-02
     18 -0.303091D-01 -0.194762D+00  0.655843D-01 -0.234022D+00 -0.747878D-03
     19 -0.508367D-01 -0.326670D+00 -0.234022D+00 -0.187411D+00 -0.125440D-02
     20 -0.162462D-03 -0.104396D-02 -0.747878D-03 -0.125440D-02  0.205105D+00
     21  0.000000D+00  0.168364D-02  0.000000D+00  0.391459D-02  0.000000D+00
     22  0.168364D-02  0.581555D-01  0.000000D+00  0.860771D-01  0.105801D-05
     23  0.000000D+00  0.000000D+00  0.242141D-01  0.000000D+00  0.000000D+00
     24 -0.391459D-02 -0.860771D-01  0.000000D+00 -0.116201D+00 -0.172591D-05
     25  0.000000D+00 -0.105801D-05  0.000000D+00 -0.172591D-05  0.242141D-01
     26  0.000000D+00  0.396526D-03 -0.521864D-03  0.919918D-03  0.216441D-05
     27  0.396526D-03  0.254588D-01 -0.202449D-01  0.356868D-01  0.839648D-04
     28  0.521864D-03  0.202449D-01 -0.754653D-02  0.305798D-01  0.719490D-04
     29 -0.919918D-03 -0.356868D-01  0.305798D-01 -0.441036D-01 -0.126829D-03
     30 -0.216441D-05 -0.839648D-04  0.719490D-04 -0.126829D-03  0.980089D-02
     31  0.535470D-02  0.964209D-01 -0.111747D+00 -0.549704D-01  0.395392D-03
     32  0.607626D-01  0.484710D+00  0.225638D+00 -0.405023D+00  0.235917D-03
     33  0.812377D-04  0.596542D-02  0.154613D-02  0.982251D-02  0.150129D-05
     34  0.111328D-04  0.174871D-02 -0.156594D-02  0.274183D-02  0.571862D-05
     35  0.000000D+00  0.130325D-02  0.264621D-02  0.153449D-02  0.856051D-04
     36  0.613442D-03  0.422479D-01  0.586656D-01  0.340191D-01  0.189784D-02
     37 -0.137316D-02 -0.527389D-01 -0.630546D-01 -0.463466D-01 -0.258555D-02
     38 -0.796274D-03 -0.305823D-01 -0.463466D-01 -0.100059D-01 -0.149932D-02
     39 -0.444220D-04 -0.170611D-02 -0.258555D-02 -0.149932D-02  0.167860D-01
     40  0.153271D-02  0.402040D-01  0.567132D-01  0.825938D-02 -0.306607D-02
     41  0.139224D-03  0.837525D-02  0.106312D-01  0.851410D-02 -0.572364D-03
     42  0.000000D+00  0.232589D-05 -0.797548D-05  0.273233D-05  0.000000D+00
     43  0.000000D+00  0.896779D-03 -0.184015D-02  0.630420D-03  0.483516D-05
     44  0.000000D+00  0.164612D-02 -0.315871D-02  0.118250D-02  0.906944D-05
     45  0.000000D+00 -0.563945D-03  0.118250D-02 -0.112189D-03 -0.310711D-05
     46  0.000000D+00 -0.432532D-05  0.906944D-05 -0.310711D-05  0.292900D-03
     47  0.000000D+00  0.000000D+00  0.000000D+00  0.000000D+00  0.000000D+00
     48  0.000000D+00  0.637100D-05 -0.166932D-04  0.914203D-05  0.000000D+00
     49  0.000000D+00  0.128482D-04 -0.318338D-04  0.184998D-04  0.000000D+00
     50  0.000000D+00 -0.703633D-05  0.184998D-04 -0.818492D-05  0.000000D+00
     51  0.000000D+00  0.000000D+00  0.000000D+00  0.000000D+00  0.194637D-05
     52  0.000000D+00  0.000000D+00  0.000000D+00  0.000000D+00  0.000000D+00
     53  0.000000D+00  0.844050D-04 -0.222288D-03  0.905803D-05  0.000000D+00
     54  0.000000D+00  0.172579D-03 -0.432243D-03  0.186797D-04  0.107196D-05
     55  0.000000D+00 -0.703242D-05  0.186797D-04  0.254040D-04  0.000000D+00
     56  0.000000D+00  0.000000D+00  0.107196D-05  0.000000D+00  0.261626D-04
     57  0.000000D+00  0.185655D-02 -0.368485D-02  0.215900D-02  0.130750D-04
     58  0.185655D-02  0.615450D-01 -0.780773D-01  0.457465D-01  0.277043D-03
     59  0.368485D-02  0.780773D-01 -0.835963D-01  0.640891D-01  0.388127D-03
     60 -0.215900D-02 -0.457465D-01  0.640891D-01 -0.117635D-01 -0.227409D-03
     61 -0.130750D-04 -0.277043D-03  0.388127D-03 -0.227409D-03  0.257857D-01
     62  0.000000D+00  0.383272D-01 -0.635386D-01 -0.765295D-04  0.258247D-03
     63  0.383272D-01  0.369158D+00 -0.391139D+00 -0.471110D-03  0.158975D-02
     64  0.635386D-01  0.391139D+00 -0.328204D+00 -0.656100D-03  0.221399D-02
     65  0.765295D-04  0.471110D-03 -0.656100D-03  0.216522D+00  0.266666D-05
     66 -0.258247D-03 -0.158975D-02  0.221399D-02  0.266666D-05  0.216513D+00
     67  0.999253D+00  0.248366D+00  0.888005D-02 -0.271901D-02 -0.104282D-03
     68  0.248366D+00  0.999978D+00  0.566568D-02 -0.173479D-02 -0.665342D-04
     69 -0.888005D-02 -0.566568D-02  0.999882D+00  0.233583D-04  0.000000D+00
     70  0.271901D-02  0.173479D-02  0.233583D-04  0.999951D+00  0.000000D+00
     71  0.104282D-03  0.665342D-04  0.000000D+00  0.000000D+00  0.999958D+00
     72  0.000000D+00  0.358104D-01  0.303274D-01  0.510797D-01  0.167436D-03
     73  0.358104D-01  0.355076D+00  0.194452D+00  0.327511D+00  0.107356D-02
     74 -0.303274D-01 -0.194452D+00  0.668454D-01 -0.233851D+00 -0.766551D-03
     75 -0.510797D-01 -0.327511D+00 -0.233851D+00 -0.188180D+00 -0.129108D-02
     76 -0.167436D-03 -0.107356D-02 -0.766551D-03 -0.129108D-02  0.205685D+00
     77  0.000000D+00  0.167214D-02  0.958726D-05  0.389073D-02  0.000000D+00
     78  0.167214D-02  0.579252D-01  0.211362D-03  0.857755D-01 -0.141170D-05
     79 -0.958726D-05 -0.211362D-03  0.241069D-01 -0.344899D-03  0.000000D+00
     80 -0.389073D-02 -0.857755D-01 -0.344899D-03 -0.115860D+00  0.230361D-05
     81  0.000000D+00  0.141170D-05  0.000000D+00  0.230361D-05  0.241077D-01
     82  0.000000D+00  0.386612D-03 -0.511395D-03  0.897955D-03  0.210806D-05
     83  0.386612D-03  0.250976D-01 -0.200430D-01  0.351934D-01  0.826207D-04
     84  0.511395D-03  0.200430D-01 -0.759175D-02  0.302762D-01  0.710770D-04
     85 -0.897955D-03 -0.351934D-01  0.302762D-01 -0.435109D-01 -0.124804D-03
     86 -0.210806D-05 -0.826207D-04  0.710770D-04 -0.124804D-03  0.965058D-02
     87  0.541664D-02  0.972216D-01 -0.112560D+00 -0.553550D-01  0.401087D-03
     88  0.609026D-01  0.485274D+00  0.226460D+00 -0.404957D+00  0.305675D-03
     89  0.817482D-04  0.598888D-02  0.155561D-02  0.985788D-02  0.198842D-05
     90  0.113300D-04  0.176754D-02 -0.158009D-02  0.277045D-02  0.580910D-05
     91  0.000000D+00  0.130874D-02  0.265565D-02  0.154096D-02  0.882044D-04
     92  0.616671D-03  0.423607D-01  0.587955D-01  0.341165D-01  0.195283D-02
     93 -0.137951D-02 -0.528545D-01 -0.631503D-01 -0.464608D-01 -0.265941D-02
     94 -0.800469D-03 -0.306692D-01 -0.464608D-01 -0.100401D-01 -0.154314D-02
     95 -0.458188D-04 -0.175550D-02 -0.265941D-02 -0.154314D-02  0.168308D-01
     96  0.142343D-02  0.382337D-01  0.543397D-01  0.681007D-02 -0.315904D-02
     97  0.112664D-03  0.732674D-02  0.934526D-02  0.757103D-02 -0.541122D-03
     98  0.000000D+00  0.266175D-05 -0.906384D-05  0.312696D-05  0.000000D+00
     99  0.000000D+00  0.971486D-03 -0.198168D-02  0.683664D-03  0.523608D-05
    100  0.100685D-05  0.177329D-02 -0.338119D-02  0.127615D-02  0.977389D-05
    101  0.000000D+00 -0.611771D-03  0.127615D-02 -0.122367D-03 -0.337192D-05
    102  0.000000D+00 -0.468547D-05  0.977389D-05 -0.337192D-05  0.317871D-03
    103  0.000000D+00  0.000000D+00  0.000000D+00  0.000000D+00  0.000000D+00
    104  0.000000D+00  0.589355D-05 -0.154822D-04  0.850744D-05  0.000000D+00
    105  0.000000D+00  0.119141D-04 -0.296025D-04  0.172558D-04  0.000000D+00
    106  0.000000D+00 -0.654678D-05  0.172558D-04 -0.768184D-05  0.000000D+00
    107  0.000000D+00  0.000000D+00  0.000000D+00  0.000000D+00  0.180003D-05
    108  0.000000D+00  0.000000D+00  0.000000D+00  0.000000D+00  0.000000D+00
    109  0.000000D+00  0.807472D-04 -0.213194D-03  0.795858D-05  0.000000D+00
    110  0.000000D+00  0.165484D-03 -0.415594D-03  0.164483D-04  0.102869D-05
    111  0.000000D+00 -0.617754D-05  0.164483D-04  0.244078D-04  0.000000D+00
    112  0.000000D+00  0.000000D+00  0.102869D-05  0.000000D+00  0.250194D-04
               16            17            18            19            20 
     16  0.100000D+01
     17  0.248362D+00  0.100000D+01
     18  0.000000D+00  0.000000D+00  0.100000D+01
     19  0.000000D+00  0.000000D+00  0.000000D+00  0.100000D+01
     20  0.000000D+00  0.000000D+00  0.000000D+00  0.000000D+00  0.100000D+01
     21  0.000000D+00  0.356788D-01 -0.303107D-01  0.508394D-01 -0.161223D-03
     22  0.356788D-01  0.354326D+00 -0.194767D+00  0.326677D+00 -0.103596D-02
     23  0.303107D-01  0.194767D+00  0.655896D-01  0.234027D+00 -0.742151D-03
     24 -0.508394D-01 -0.326677D+00  0.234027D+00 -0.187409D+00  0.124479D-02
     25  0.161223D-03  0.103596D-02 -0.742151D-03  0.124479D-02  0.205114D+00
     26  0.000000D+00  0.169877D-02 -0.341720D-02  0.197314D-02  0.297771D-05
     27  0.169877D-02  0.584576D-01 -0.748851D-01  0.432397D-01  0.652541D-04
     28  0.341720D-02  0.748851D-01 -0.813905D-01  0.610582D-01  0.921444D-04
     29 -0.197314D-02 -0.432397D-01  0.610582D-01 -0.109021D-01 -0.532055D-04
     30 -0.297771D-05 -0.652541D-04  0.921444D-04 -0.532055D-04  0.243536D-01
     31  0.824520D-04  0.602114D-02 -0.777342D-02 -0.633825D-02  0.862942D-05
     32  0.496529D-02  0.913338D-01 -0.104127D-01 -0.118330D+00 -0.181147D-03
     33  0.496444D-02  0.913227D-01 -0.104151D-01  0.118317D+00 -0.183292D-03
     34  0.824506D-04  0.602108D-02 -0.777316D-02  0.633841D-02  0.927070D-05
     35  0.000000D+00  0.307639D-01  0.510102D-01  0.000000D+00  0.237770D-02
     36  0.306069D-01  0.330360D+00  0.386829D+00 -0.561888D-05  0.180310D-01
     37 -0.513336D-01 -0.334381D+00 -0.319045D+00  0.734685D-05 -0.235760D-01
     38  0.000000D+00  0.485705D-05  0.734685D-05  0.186744D+00  0.000000D+00
     39 -0.239278D-02 -0.155863D-01 -0.235760D-01  0.000000D+00  0.185645D+00
     40  0.722577D-02  0.119750D+00  0.136375D+00 -0.622329D-01 -0.105578D-01
     41  0.722577D-02  0.119750D+00  0.136375D+00  0.622418D-01 -0.105151D-01
     42  0.000000D+00  0.000000D+00  0.000000D+00  0.000000D+00  0.000000D+00
     43  0.000000D+00  0.133095D-03 -0.323632D-03  0.000000D+00  0.000000D+00
     44  0.000000D+00  0.287658D-03 -0.663765D-03  0.000000D+00  0.000000D+00
     45  0.000000D+00  0.000000D+00  0.000000D+00  0.422561D-04  0.000000D+00
     46  0.000000D+00  0.000000D+00  0.000000D+00  0.000000D+00  0.422549D-04
     47  0.000000D+00  0.000000D+00  0.000000D+00  0.000000D+00  0.000000D+00
     48  0.000000D+00  0.180569D-05 -0.555480D-05  0.119776D-05  0.000000D+00
     49  0.000000D+00  0.426551D-05 -0.126014D-04  0.283574D-05  0.000000D+00
     50  0.000000D+00  0.000000D+00  0.283574D-05  0.000000D+00  0.000000D+00
     51  0.000000D+00  0.000000D+00  0.000000D+00  0.000000D+00  0.000000D+00
     52  0.000000D+00  0.000000D+00  0.000000D+00  0.000000D+00  0.000000D+00
     53  0.000000D+00  0.180556D-05 -0.555441D-05 -0.119770D-05  0.000000D+00
     54  0.000000D+00  0.426521D-05 -0.126006D-04 -0.283560D-05  0.000000D+00
     55  0.000000D+00  0.000000D+00 -0.283560D-05  0.000000D+00  0.000000D+00
     56  0.000000D+00  0.000000D+00  0.000000D+00  0.000000D+00  0.000000D+00
     57  0.000000D+00  0.387078D-03 -0.103451D-02  0.000000D+00  0.128495D-05
     58  0.387078D-03  0.251147D-01 -0.405257D-01  0.000000D+00  0.503362D-04
     59  0.103451D-02  0.405257D-01 -0.607868D-01  0.116801D-05  0.874982D-04
     60  0.000000D+00  0.000000D+00  0.116801D-05  0.965798D-02  0.000000D+00
     61 -0.128495D-05 -0.503362D-04  0.874982D-04  0.000000D+00  0.965787D-02
     62  0.000000D+00  0.165242D-02 -0.333477D-02 -0.192356D-02  0.276026D-05
     63  0.165242D-02  0.575289D-01 -0.738512D-01 -0.425988D-01  0.611281D-04
     64  0.333477D-02  0.738512D-01 -0.805223D-01 -0.602472D-01  0.864530D-04
     65  0.192356D-02  0.425988D-01 -0.602472D-01 -0.108270D-01  0.498678D-04
     66 -0.276026D-05 -0.611281D-04  0.864530D-04  0.498678D-04  0.239247D-01
     67  0.000000D+00  0.358050D-01 -0.301965D-01 -0.511470D-01 -0.166161D-03
     68  0.358050D-01  0.355046D+00 -0.193630D+00 -0.327971D+00 -0.106548D-02
     69  0.301965D-01  0.193630D+00  0.679842D-01 -0.233206D+00 -0.757616D-03
     70  0.511470D-01  0.327971D+00 -0.233206D+00 -0.189338D+00 -0.128325D-02
     71  0.166161D-03  0.106548D-02 -0.757616D-03 -0.128325D-02  0.205662D+00
     72  0.999827D+00  0.248363D+00 -0.446562D-02 -0.192044D-05  0.148170D-03
     73  0.248363D+00  0.999995D+00 -0.284885D-02 -0.122515D-05  0.945251D-04
     74  0.446562D-02  0.284885D-02  0.999971D+00  0.000000D+00  0.000000D+00
     75  0.192044D-05  0.122515D-05  0.000000D+00  0.999990D+00  0.000000D+00
     76 -0.148170D-03 -0.945251D-04  0.000000D+00  0.000000D+00  0.999990D+00
     77  0.000000D+00  0.358065D-01 -0.301978D-01  0.511490D-01 -0.164898D-03
     78  0.358065D-01  0.355054D+00 -0.193634D+00  0.327976D+00 -0.105735D-02
     79  0.301978D-01  0.193634D+00  0.679880D-01  0.233209D+00 -0.751837D-03
     80 -0.511490D-01 -0.327976D+00  0.233209D+00 -0.189337D+00  0.127346D-02
     81  0.164898D-03  0.105735D-02 -0.751837D-03  0.127346D-02  0.205668D+00
     82  0.000000D+00  0.165215D-02 -0.333426D-02  0.192335D-02  0.288635D-05
     83  0.165215D-02  0.575235D-01 -0.738443D-01  0.425967D-01  0.639244D-04
     84  0.333426D-02  0.738443D-01 -0.805149D-01  0.602440D-01  0.904075D-04
     85 -0.192335D-02 -0.425967D-01  0.602440D-01 -0.108291D-01 -0.521510D-04
     86 -0.288635D-05 -0.639244D-04  0.904075D-04 -0.521510D-04  0.239222D-01
     87  0.839374D-04  0.608892D-02 -0.785341D-02 -0.640645D-02  0.883265D-05
     88  0.498851D-02  0.916399D-01 -0.103935D-01 -0.118681D+00 -0.172878D-03
     89  0.498800D-02  0.916331D-01 -0.103963D-01  0.118673D+00 -0.174959D-03
[...]
    28  H    0.002355  -0.033954   1.258659  -6.439279   0.759847  -0.007220
    29  H    0.002361  -0.007218   0.759855  -6.456314   1.256427  -0.034028
    30  N 5879.186137-114.300055  -2.012139   0.257443  -2.016370-113.328274
    31  O  -14.052802  -1.230298   0.001624   0.002758  -0.082193  50.436799
    32  O  -13.104283  50.415101  -0.082198   0.002752   0.001657  -1.253945
               7          8          9         10         11         12
     1  C  307.853194   3.736014   3.758688 314.098793  -1.736214  -0.003422
     2  C -205.023841-121.218873   1.362910   0.294502   9.551551   0.045368
     3  C  219.8146539472.380525  10.493082   0.711817 431.489842  -0.921251
     4  C    2.570256**********************   2.553185***********   4.056823
     5  C    0.710045  10.6476049342.588142 220.700844 432.677263  -0.526519
     6  C    0.298954   1.378273-118.608282-206.047173   9.562591   0.009116
     7  H 1281.381366   7.453773   0.019268   0.012529  -0.011053   0.000430
     8  H    7.453773***********   1.923874   0.019446 131.107896   1.250089
     9  H    0.019268   1.923874***********   7.359376 129.728560   0.042595
    10  H    0.012529   0.019446   7.3593761291.799787  -0.011005   0.000044
    11  N   -0.011053 131.107896 129.728560  -0.011005***********  75.481001
    12  H    0.000430   1.250089   0.042595   0.000044  75.481001  25.702974
    13  H    0.000044   0.042845   1.237105   0.000428  75.491006  -0.673311
    14  N   -4.043556  -0.018331  -0.018069  -4.040160   0.000030  -0.000001
    15  O   -0.038527  -0.000070   0.001821   2.200179  -0.000000  -0.000000
    16  O    2.175834   0.001846  -0.000069  -0.039475  -0.000000  -0.000000
    17  C -306.670035  -3.743688  -3.766046-312.902786   1.742396   0.003440
    18  C  235.658310 118.773775  -1.354821  -0.316455  -9.370566  -0.044776
    19  C -219.610998*********** -10.224115  -0.705247-435.489537   0.944172
    20  C   -2.5990341189.7132241177.098741  -2.581736***********  -4.272441
    21  C   -0.703491 -10.376103***********-220.497037-436.686298   0.534496
    22  C   -0.320285  -1.370019 116.200531 236.806197  -9.381434  -0.008975
    23  H ***********  -7.426463  -0.018076  -0.011836   0.012943  -0.000386
    24  H   -7.177050***********  -1.912217  -0.019266-130.290327  -1.266205
    25  H   -0.019089  -1.912137***********  -7.082360-128.907866  -0.042691
    26  H   -0.011834  -0.018245  -7.330428***********   0.012891  -0.000039
    27  N    0.011585-130.327729-128.955863   0.011536*********** -80.818703
    28  H   -0.000607  -0.940946  -0.001793  -0.000050 -67.876913 -16.932879
    29  H   -0.000050  -0.001621  -0.932176  -0.000606 -67.874830   0.328871
    30  N    4.118922   0.019706   0.019423   4.113945  -0.000035   0.000001
    31  O    0.035837   0.000064  -0.001714  -2.176443   0.000000   0.000000
    32  O   -2.152707  -0.001737   0.000063   0.036720   0.000000   0.000000
              13         14         15         16         17         18
     1  C   -0.003433***********  17.734786  16.742150**********************
     2  C    0.009111 109.622283   1.322268 -52.486267**********************
     3  C   -0.527305   1.837496  -0.001814   0.086533**********************
     4  C    4.080017  -0.232805  -0.002968  -0.002961 274.457449-849.818101
     5  C   -0.920354   1.841346   0.086531  -0.001850*********** 282.237802
     6  C    0.045432 108.712953 -52.509991   1.347616***********-231.321383
     7  H    0.000044  -4.043556  -0.038527   2.175834-306.670035 235.658310
     8  H    0.042845  -0.018331  -0.000070   0.001846  -3.743688 118.773775
     9  H    1.237105  -0.018069   0.001821  -0.000069  -3.766046  -1.354821
    10  H    0.000428  -4.040160   2.200179  -0.039475-312.902786  -0.316455
    11  N   75.491006   0.000030  -0.000000  -0.000000   1.742396  -9.370566
    12  H   -0.673311  -0.000001  -0.000000  -0.000000   0.003440  -0.044776
    13  H   25.718693  -0.000001  -0.000000  -0.000000   0.003451  -0.008969
    14  N   -0.0000019565.302402 529.436364 529.7629325717.245405-110.367163
    15  O   -0.000000 529.436364*********** -30.583000 -18.149820  -1.343429
    16  O   -0.000000 529.762932 -30.583000*********** -17.157504  53.527286
    17  C    0.0034515717.245405 -18.149820 -17.157504**********************
    18  C   -0.008969-110.367163  -1.343429  53.527286**********************
    19  C    0.535296  -1.801865   0.001779  -0.0849631016.0861239568.901379
    20  C   -4.295254   0.235888   0.003015   0.003007-278.356168 859.118266
    21  C    0.943218  -1.805663  -0.084963   0.0018141023.537866-279.481085
    22  C   -0.044839-109.444696  53.550824  -1.369116*********** 225.934672
    23  H   -0.000039   4.300471   0.039103  -2.415923 322.780825-276.159578
    24  H   -0.042941   0.018179   0.000068  -0.001791   3.440221-119.157957
    25  H   -1.253232   0.017920  -0.001766   0.000068   3.459612   1.353145
    26  H   -0.000384   4.295325  -2.439992   0.040086 329.208457   0.173144
    27  N  -80.831891  -0.000031   0.000000   0.000000  -1.737217   9.346554
    28  H    0.328841   0.000001   0.000000   0.000000  -0.002369   0.033534
    29  H  -16.945150   0.000001   0.000000   0.000000  -0.002375   0.007114
    30  N    0.000001***********-541.652499-541.972652*********** 115.030291
    31  O    0.000000-521.517189***********  29.001803  14.454081   1.249940
    32  O    0.000000-521.830674  29.002456***********  13.505854 -51.419029
              19         20         21         22         23         24
     1  C *********** 276.824685**********************-323.973405  -3.433869
     2  C ***********-867.240849 283.045974-231.370208 243.961148 121.640093
     3  C **********************-225.496307 282.111941-224.107160***********
     4  C *********************************-850.363230  -2.0132221180.786326
     5  C -225.487964*********************************  -0.760703 -10.610560
     6  C  282.915974-867.800987**********************  -0.153042  -1.376568
     7  H -219.610998  -2.599034  -0.703491  -0.320285***********  -7.177050
     8  H ***********1189.713224 -10.376103  -1.370019  -7.426463***********
     9  H  -10.2241151177.098741*********** 116.200531  -0.018076  -1.912217
    10  H   -0.705247  -2.581736-220.497037 236.806197  -0.011836  -0.019266
    11  N -435.489537***********-436.686298  -9.381434   0.012943-130.290327
    12  H    0.944172  -4.272441   0.534496  -0.008975  -0.000386  -1.266205
    13  H    0.535296  -4.295254   0.943218  -0.044839  -0.000039  -0.042941
    14  N   -1.801865   0.235888  -1.805663-109.444696   4.300471   0.018179
    15  O    0.001779   0.003015  -0.084963  53.550824   0.039103   0.000068
    16  O   -0.084963   0.003007   0.001814  -1.369116  -2.415923  -0.001791
    17  C 1016.086123-278.3561681023.537866*********** 322.780825   3.440221
    18  C 9568.901379 859.118266-279.481085 225.934672-276.159578-119.157957
    19  C ********************** 221.363846-279.358383 223.9243419511.353310
    20  C ********************************* 859.672102   2.036204***********
    21  C  221.363846**********************9577.306597   0.753635  10.340526
    22  C -279.358383 859.6721029577.306597***********   0.176620   1.368206
    23  H  223.924341   2.036204   0.753635   0.1766201393.401925   7.142633
    24  H 9511.353310***********  10.340526   1.368206   7.142633***********
    25  H   10.188983***********9380.183081-116.593388   0.017906   1.900553
    26  H    0.755299   2.019691 224.805174-277.044299   0.011260   0.018074
    27  N  437.393389*********** 438.589988   9.357375  -0.013442 129.515323
    28  H   -1.279326   6.580927  -0.769273   0.007115   0.000568   0.947154
    29  H   -0.769291   6.597700  -1.277037   0.033607   0.000045   0.001881
    30  N    1.973464  -0.260839   1.977636 114.044599  -4.382233  -0.019546
    31  O   -0.001592  -0.002801   0.080699 -51.440529  -0.036382  -0.000062
    32  O    0.080703  -0.002795  -0.001625   1.273904   2.384345   0.001686
              25         26         27         28         29         30
     1  C   -3.453575-330.414454   1.731090   0.002355   0.0023615879.186137
     2  C   -1.361344  -0.148927  -9.527120  -0.033954  -0.007218-114.300055
     3  C  -10.456483  -0.762381-433.367738   1.258659   0.759855  -2.012139
     4  C 1168.210286  -1.996925***********  -6.439279  -6.456314   0.257443
     5  C ***********-224.988083-434.555075   0.759847   1.256427  -2.016370
     6  C  119.038368 244.724571  -9.538111  -0.007220  -0.034028-113.328274
     7  H   -0.019089  -0.011834   0.011585  -0.000607  -0.000050   4.118922
     8  H   -1.912137  -0.018245-130.327729  -0.940946  -0.001621   0.019706
     9  H ***********  -7.330428-128.955863  -0.001793  -0.932176   0.019423
    10  H   -7.082360***********   0.011536  -0.000050  -0.000606   4.113945
    11  N -128.907866   0.012891*********** -67.876913 -67.874830  -0.000035
    12  H   -0.042691  -0.000039 -80.818703 -16.932879   0.328871   0.000001
    13  H   -1.253232  -0.000384 -80.831891   0.328841 -16.945150   0.000001
    14  N    0.017920   4.295325  -0.000031   0.000001   0.000001***********
    15  O   -0.001766  -2.439992   0.000000   0.000000   0.000000-541.652499
    16  O    0.000068   0.040086   0.000000   0.000000   0.000000-541.972652
    17  C    3.459612 329.208457  -1.737217  -0.002369  -0.002375***********
    18  C    1.353145   0.173144   9.346554   0.033534   0.007114 115.030291
    19  C   10.188983   0.755299 437.393389  -1.279326  -0.769291   1.973464
    20  C ***********   2.019691***********   6.580927   6.597700  -0.260839
    21  C 9380.183081 224.805174 438.589988  -0.769273  -1.277037   1.977636
    22  C -116.593388-277.044299   9.357375   0.007115   0.033607 114.044599
    23  H    0.017906   0.011260  -0.013442   0.000568   0.000045  -4.382233
    24  H    1.900553   0.018074 129.515323   0.947154   0.001881  -0.019546
    25  H ***********   7.046320 128.140323   0.002054   0.938385  -0.019266
    26  H    7.0463201404.203237  -0.013388   0.000045   0.000566  -4.375407
    27  N  128.140323  -0.013388***********  71.133090  71.133779   0.000036
    28  H    0.002054   0.000045  71.133090  12.274471  -0.085708  -0.000001
    29  H    0.938385   0.000566  71.133779  -0.085708  12.283639  -0.000001
    30  N   -0.019266  -4.375407   0.000036  -0.000001  -0.0000019576.288733
    31  O    0.001662   2.407800  -0.000000  -0.000000  -0.000000 532.483008
    32  O   -0.000062  -0.037300  -0.000000  -0.000000  -0.000000 532.790561
              31         32
     1  C  -14.052802 -13.104283
     2  C   -1.230298  50.415101
     3  C    0.001624  -0.082198
     4  C    0.002758   0.002752
     5  C   -0.082193   0.001657
     6  C   50.436799  -1.253945
     7  H    0.035837  -2.152707
     8  H    0.000064  -0.001737
     9  H   -0.001714   0.000063
    10  H   -2.176443   0.036720
    11  N    0.000000   0.000000
    12  H    0.000000   0.000000
    13  H    0.000000   0.000000
    14  N -521.517189-521.830674
    15  O ***********  29.002456
    16  O   29.001803***********
    17  C   14.454081  13.505854
    18  C    1.249940 -51.419029
    19  C   -0.001592   0.080703
    20  C   -0.002801  -0.002795
    21  C    0.080699  -0.001625
    22  C  -51.440529   1.273904
    23  H   -0.036382   2.384345
    24  H   -0.000062   0.001686
    25  H    0.001662  -0.000062
    26  H    2.407800  -0.037300
    27  N   -0.000000  -0.000000
    28  H   -0.000000  -0.000000
    29  H   -0.000000  -0.000000
    30  N  532.483008 532.790561
    31  O *********** -27.499530
    32  O  -27.499530***********
 Mulliken charges:
               1
     1  C  -78.539617
     2  C   -3.963804
     3  C    7.602911
     4  C   -6.204549
     5  C    7.416036
     6  C   -4.104461
     7  H   22.932920
     8  H   43.513212
     9  H   43.333296
    10  H   22.989431
    11  N  -17.309775
    12  H   -1.887822
    13  H   -1.888384
    14  N  -15.838455
    15  O   19.679443
    16  O   19.693809
    17  C   77.979238
    18  C    1.943991
    19  C   -9.395245
    20  C    6.203740
    21  C   -9.206310
    22  C    2.090806
    23  H  -22.806320
    24  H  -43.717985
    25  H  -43.538583
    26  H  -22.862730
    27  N   19.160684
    28  H    2.041655
    29  H    2.042173
    30  N   15.264295
    31  O  -16.304785
    32  O  -16.318817
 Sum of Mulliken charges =  -0.00000
 Mulliken charges with hydrogens summed into heavy atoms:
               1
     1  C  -78.539617
     2  C   -3.963804
     3  C    7.602911
     4  C   -6.204549
     5  C    7.416036
     6  C   -4.104461
    11  N  -17.002154
    14  N  -15.838455
    15  O   19.679443
    16  O   19.693809
    17  C   77.979238
    18  C    2.070592
    19  C   -9.600018
    20  C    6.203740
    21  C   -9.411596
    22  C    2.217507
    27  N   19.160684
    30  N   15.264295
    31  O  -16.304785
    32  O  -16.318817
 N-N= 5.042789234661D+04 E-N=-7.559812680811D+03  KE= 9.515437603449D+02
 Orbital energies and kinetic energies (alpha):
                                 1                 2
   1         O               -65.175948         33.757150
   2         O               -65.065984         33.525585
   3         O               -49.809284         25.937828
   4         O               -48.478459         25.782510
   5         O               -35.990735         20.098462
   6         O               -35.989032         20.103408
   7         O               -35.707707         19.469030
   8         O               -35.692347         19.432651
   9         O               -35.408312         18.868095
  10         O               -35.357346         18.760079
  11         O                -7.251573         15.969886
  12         O                -7.251152         15.965561
  13         O                -5.371905         12.022209
  14         O                -4.351759          4.393213
  15         O                -4.335249          4.332728
  16         O                -3.747889          3.702257
  17         O                -3.719909          7.632290
  18         O                -3.717168          7.458484
  19         O                -3.612015          8.393934
  20         O                -3.611764          8.370707
  21         O                -3.529669          3.674493
  22         O                -2.863923          4.077551
  23         O                -2.768191          2.513545
  24         O                -2.734820          3.157448
  25         O                -2.721179          3.097979
  26         O                -2.658754          2.244854
  27         O                -2.653465          3.263282
  28         O                -2.602448          3.440546
  29         O                -2.572175          2.795293
  30         O                -2.564509          2.840876
  31         O                -2.559078          2.721553
  32         O                -2.518743          2.569967
  33         O                -2.470654          3.058325
  34         O                -2.430287          2.831182
  35         O                -2.260467          3.656862
  36         O                -2.201692          3.718662
  37         O                -2.111391          2.353356
  38         O                -2.012814          2.036736
  39         O                -1.952878          1.870862
  40         O                -1.933267          1.923400
  41         O                -1.922432          2.588192
  42         O                -1.905506          3.217225
  43         O                -1.861569          1.869302
  44         O                -1.861189          2.439453
  45         O                -1.633763          2.208961
  46         O                -1.602714          1.896384
  47         O                -1.594282          1.832579
  48         O                -1.552795          1.322566
  49         O                -1.550169          1.366255
  50         O                -1.531291          1.106810
  51         O                -1.017647          1.367606
  52         O                -1.017256          1.372035
  53         O                -0.992061          1.386027
  54         O                -0.991191          1.386556
  55         O                -0.980407          1.288804
  56         O                -0.969335          1.475610
  57         O                -0.383890          3.290405
  58         O                -0.221360          5.152574
  59         O                -0.100649          4.738949
  60         O                -0.085848          4.987459
  61         O                -0.000794          3.560829
  62         O                 0.041092          4.140156
  63         O                 0.063383          3.284217
  64         O                 0.090108          3.491570
  65         O                 0.118450          3.604401
  66         O                 0.123108          4.485586
  67         O                 0.143881          4.216244
  68         O                 0.169163          4.379646
  69         O                 0.180017          3.081174
  70         O                 0.254188          5.569834
  71         O                 0.266581          3.550588
  72         O                 0.330310          4.291044
  73         V                 0.398467          3.957625
  74         V                 0.458104          4.256013
  75         V                 0.490923          4.787676
  76         V                 0.491399          4.496803
  77         V                 0.554239          6.553409
  78         V                 0.684248          4.829614
  79         V                 0.685889          6.974807
  80         V                 0.776703          4.805294
  81         V                 0.787648          5.269486
  82         V                 0.792330          5.636332
  83         V                 0.812936          5.159244
  84         V                 0.849736          5.237238
  85         V                 0.868799          4.991800
  86         V                 0.999867          6.144532
  87         V                 1.045753          5.305322
  88         V                 1.158867          6.222644
  89         V                 1.375759          7.462510
  90         V                 1.554651          8.112442
  91         V                 1.838824          8.825591
  92         V                 1.947677          6.129606
  93         V                 1.994351          5.125072
  94         V                 2.003079          6.138163
  95         V                 2.010527          4.965473
  96         V                 2.163045          5.101418
  97         V                 2.255393          5.411021
  98         V                 2.617369          8.846441
  99         V                 2.635472          8.841994
 100         V                15.005416         59.241617
 101         V                15.441561         59.152998
 102         V                18.861446         78.722553
 103         V                26.970015         76.246586
 104         V                27.387049         76.838119
 105         V                28.481330         78.272755
 106         V                28.675424         78.482775
 107         V                31.566642         99.459539
 108         V                41.506951        131.363945
 109         V                41.560185        131.404791
 Total kinetic energy from orbitals= 9.515437603451D+02

 This type of calculation cannot be archived.


 ... THE UNIVERSE IS NOT ONLY QUEERER THAN WE SUPPOSE,
 BUT QUEERER THAN WE CAN SUPPOSE ... 

                                   -- J. B. S. HALDANE
 Job cpu time:       0 days  0 hours  0 minutes 10.1 seconds.
 Elapsed time:       0 days  0 hours  0 minutes 10.4 seconds.
 File lengths (MBytes):  RWF=    272 Int=      0 D2E=      0 Chk=     32 Scr=     32
 Normal termination of Gaussian 16 at Mon Dec 26 22:06:06 2022.
