 Entering Gaussian System, Link 0=g16
 Initial command:
 /software/gaussian/g16-c01/avx/g16/l1.exe "/gpfs/fs2/scratch/bweight/software/SQD/src/NAMD/TEST_POP_FULL/G16/GS_NEW/Gau-21060.inp" -scrdir="/gpfs/fs2/scratch/bweight/software/SQD/src/NAMD/TEST_POP_FULL/G16/GS_NEW/"
 Entering Link 1 = /software/gaussian/g16-c01/avx/g16/l1.exe PID=     21061.
  
 Copyright (c) 1988-2019, Gaussian, Inc.  All Rights Reserved.
  
 This is part of the Gaussian(R) 16 program.  It is based on
 the Gaussian(R) 09 system (copyright 2009, Gaussian, Inc.),
 the Gaussian(R) 03 system (copyright 2003, Gaussian, Inc.),
 the Gaussian(R) 98 system (copyright 1998, Gaussian, Inc.),
 the Gaussian(R) 94 system (copyright 1995, Gaussian, Inc.),
 the Gaussian 92(TM) system (copyright 1992, Gaussian, Inc.),
 the Gaussian 90(TM) system (copyright 1990, Gaussian, Inc.),
 the Gaussian 88(TM) system (copyright 1988, Gaussian, Inc.),
 the Gaussian 86(TM) system (copyright 1986, Carnegie Mellon
 University), and the Gaussian 82(TM) system (copyright 1983,
 Carnegie Mellon University). Gaussian is a federally registered
 trademark of Gaussian, Inc.
  
 This software contains proprietary and confidential information,
 including trade secrets, belonging to Gaussian, Inc.
  
 This software is provided under written license and may be
 used, copied, transmitted, or stored only in accord with that
 written license.
  
 The following legend is applicable only to US Government
 contracts under FAR:
  
                    RESTRICTED RIGHTS LEGEND
  
 Use, reproduction and disclosure by the US Government is
 subject to restrictions as set forth in subparagraphs (a)
 and (c) of the Commercial Computer Software - Restricted
 Rights clause in FAR 52.227-19.
  
 Gaussian, Inc.
 340 Quinnipiac St., Bldg. 40, Wallingford CT 06492
  
  
 ---------------------------------------------------------------
 Warning -- This program may not be used in any manner that
 competes with the business of Gaussian, Inc. or will provide
 assistance to any competitor of Gaussian, Inc.  The licensee
 of this program is prohibited from giving any competitor of
 Gaussian, Inc. access to this program.  By using this program,
 the user acknowledges that Gaussian, Inc. is engaged in the
 business of creating and licensing software in the field of
 computational chemistry and represents and warrants to the
 licensee that it is not a competitor of Gaussian, Inc. and that
 it will not use this program in any manner prohibited above.
 ---------------------------------------------------------------
  

 Cite this work as:
 Gaussian 16, Revision C.01,
 M. J. Frisch, G. W. Trucks, H. B. Schlegel, G. E. Scuseria, 
 M. A. Robb, J. R. Cheeseman, G. Scalmani, V. Barone, 
 G. A. Petersson, H. Nakatsuji, X. Li, M. Caricato, A. V. Marenich, 
 J. Bloino, B. G. Janesko, R. Gomperts, B. Mennucci, H. P. Hratchian, 
 J. V. Ortiz, A. F. Izmaylov, J. L. Sonnenberg, D. Williams-Young, 
 F. Ding, F. Lipparini, F. Egidi, J. Goings, B. Peng, A. Petrone, 
 T. Henderson, D. Ranasinghe, V. G. Zakrzewski, J. Gao, N. Rega, 
 G. Zheng, W. Liang, M. Hada, M. Ehara, K. Toyota, R. Fukuda, 
 J. Hasegawa, M. Ishida, T. Nakajima, Y. Honda, O. Kitao, H. Nakai, 
 T. Vreven, K. Throssell, J. A. Montgomery, Jr., J. E. Peralta, 
 F. Ogliaro, M. J. Bearpark, J. J. Heyd, E. N. Brothers, K. N. Kudin, 
 V. N. Staroverov, T. A. Keith, R. Kobayashi, J. Normand, 
 K. Raghavachari, A. P. Rendell, J. C. Burant, S. S. Iyengar, 
 J. Tomasi, M. Cossi, J. M. Millam, M. Klene, C. Adamo, R. Cammi, 
 J. W. Ochterski, R. L. Martin, K. Morokuma, O. Farkas, 
 J. B. Foresman, and D. J. Fox, Gaussian, Inc., Wallingford CT, 2019.
 
 ******************************************
 Gaussian 16:  ES64L-G16RevC.01  3-Jul-2019
                 2-Feb-2023 
 ******************************************
 %oldchk=../GS_OLD/geometry.chk
 %chk=geometry.chk
 %nprocshared=12
 Will use up to   12 processors via shared memory.
 %mem=30GB
 Copying data from "../GS_OLD/geometry.chk" to current chk file "geometry.chk"
 IOpt=  2 FromEx=T IUOpen= 4 IOptOp= 5 NList=   0 IFRang= 0 IUIn= 4 IUOut= 2.
 -------------------------------------------
 # AM1/STO-5G SCF=XQC FORCE nosym guess=read
 -------------------------------------------
 1/10=7,30=1,38=1/1,3;
 2/12=2,15=1,17=6,18=5,40=1/2;
 3/5=2,6=5,25=1,41=700000,71=1,116=-2/1,2,3;
 4/5=1,35=1/1;
 5/5=2,8=3,13=1,35=1,38=6/2,8;
 6/7=2,8=2,9=2,10=2,28=1/1;
 7/29=1,30=1/1,2,3,16;
 1/10=7,30=1/3;
 99//99;
 ---------
 MD Step 3
 ---------
 Symbolic Z-matrix:
 Charge =  0 Multiplicity = 1
 C                    -1.03749  -1.17193   0.00173 
 C                     0.31491  -1.13813   0.00275 
 C                     1.00844   0.00028  -0.00156 
 C                     0.31475   1.13843  -0.0024 
 C                    -1.03761   1.17191  -0.00082 
 C                    -1.74509  -0.00001   0.0006 
 H                    -1.6732   -2.05366   0.00397 
 H                     0.7752   -2.1061    0.00521 
 H                     0.77491   2.10642  -0.00293 
 H                    -1.67367   2.05326  -0.00007 
 N                     2.34544   0.00018  -0.00492 
 C                     3.09795  -1.23123  -0.00051 
 H                     4.14094  -1.02744  -0.00183 
 H                     2.8363   -1.83312   0.86181 
 H                     2.83545  -1.83861  -0.85932 
 C                     3.09873   1.23083   0.00472 
 H                     4.14149   1.02662  -0.01478 
 H                     2.82406   1.84701  -0.84455 
 H                     2.84967   1.8248    0.87607 
 C                    -3.20213  -0.0003    0.00007 
 N                    -4.32533   0.00001  -0.00071 
 

 GradGradGradGradGradGradGradGradGradGradGradGradGradGradGradGradGradGrad
 Berny optimization.
 Initialization pass.
 Trust Radius=3.00D-01 FncErr=1.00D-07 GrdErr=1.00D-07 EigMax=2.50D+02 EigMin=1.00D-04
 Number of steps in this run=      2 maximum allowed number of steps=      2.
 GradGradGradGradGradGradGradGradGradGradGradGradGradGradGradGradGradGrad

                          Input orientation:                          
 ---------------------------------------------------------------------
 Center     Atomic      Atomic             Coordinates (Angstroms)
 Number     Number       Type             X           Y           Z
 ---------------------------------------------------------------------
      1          6           0       -1.037488   -1.171934    0.001729
      2          6           0        0.314912   -1.138130    0.002746
      3          6           0        1.008436    0.000276   -0.001556
      4          6           0        0.314748    1.138433   -0.002400
      5          6           0       -1.037611    1.171905   -0.000820
      6          6           0       -1.745088   -0.000009    0.000598
      7          1           0       -1.673196   -2.053663    0.003968
      8          1           0        0.775204   -2.106096    0.005207
      9          1           0        0.774912    2.106416   -0.002931
     10          1           0       -1.673671    2.053258   -0.000074
     11          7           0        2.345442    0.000178   -0.004920
     12          6           0        3.097952   -1.231232   -0.000507
     13          1           0        4.140938   -1.027442   -0.001831
     14          1           0        2.836296   -1.833119    0.861807
     15          1           0        2.835454   -1.838612   -0.859321
     16          6           0        3.098731    1.230832    0.004717
     17          1           0        4.141492    1.026616   -0.014784
     18          1           0        2.824061    1.847010   -0.844548
     19          1           0        2.849667    1.824804    0.876069
     20          6           0       -3.202133   -0.000295    0.000073
     21          7           0       -4.325332    0.000014   -0.000705
 ---------------------------------------------------------------------
                    Distance matrix (angstroms):
                    1          2          3          4          5
     1  C    0.000000
     2  C    1.352823   0.000000
     3  C    2.357942   1.333028   0.000000
     4  C    2.677004   2.276569   1.332893   0.000000
     5  C    2.343840   2.676863   2.357759   1.352775   0.000000
     6  C    1.368980   2.353492   2.753524   2.353504   1.368907
     7  H    1.087004   2.188784   3.377846   3.760510   3.287595
     8  H    2.039246   1.071836   2.119256   3.277048   3.745881
     9  H    3.745983   3.276997   2.119047   1.071793   2.039253
    10  H    3.287338   3.760244   3.377638   2.188772   1.086902
    11  N    3.580238   2.327844   1.337010   2.327949   3.580225
    12  C    4.135865   2.784598   2.425425   3.655343   4.783090
    13  H    5.180442   3.827629   3.296782   4.396674   5.626233
    14  H    4.022823   2.752884   2.729067   3.991889   4.978098
    15  H    4.023126   2.754445   2.730433   3.993879   4.980047
    16  C    4.783472   3.655357   2.425622   2.785525   4.136766
    17  H    5.626342   4.396493   3.296906   3.828397   5.181159
    18  H    4.974109   3.990589   2.723519   2.740063   4.010007
    19  H    4.985467   3.995830   2.736651   2.769228   4.038087
    20  C    2.461388   3.696523   4.210570   3.696642   2.461546
    21  N    3.490471   4.777787   5.333768   4.777692   3.490334
                    6          7          8          9         10
     6  C    0.000000
     7  H    2.054914   0.000000
     8  H    3.284432   2.448962   0.000000
     9  H    3.284423   4.826959   4.212520   0.000000
    10  H    2.054509   4.106923   4.826722   2.449161   0.000000
    11  N    4.090533   4.513069   2.627192   2.627319   4.513140
    12  C    4.997093   4.841515   2.482051   4.066499   5.792776
    13  H    5.975025   5.904008   3.534361   4.599043   6.580303
    14  H    5.009097   4.595655   2.248640   4.529571   6.015527
    15  H    5.010118   4.595589   2.250241   4.532382   6.018070
    16  C    4.997756   5.793030   4.066186   2.483313   4.842751
    17  H    5.975451   6.580203   4.598498   3.535529   5.905110
    18  H    5.000287   6.013364   4.532874   2.230386   4.580968
    19  H    5.020773   6.021575   4.529214   2.270805   4.613069
    20  C    1.457046   2.560075   4.500404   4.500569   2.559937
    21  N    2.580245   3.354316   5.518260   5.518099   3.353672
                   11         12         13         14         15
    11  N    0.000000
    12  C    1.443142   0.000000
    13  H    2.068772   1.062710   0.000000
    14  H    2.086416   1.083659   1.759851   0.000000
    15  H    2.085968   1.084149   1.759993   1.721137   0.000000
    16  C    1.442930   2.462069   2.487175   3.192377   3.199588
    17  H    2.068687   2.487379   2.054100   3.263439   3.260140
    18  H    2.084428   3.203591   3.272127   4.056494   3.685669
    19  H    2.087977   3.188947   3.251676   3.657975   4.053690
    20  C    5.547577   6.419211   7.414562   6.369023   6.369492
    21  N    6.670775   7.524699   8.528387   7.442662   7.442756
                   16         17         18         19         20
    16  C    0.000000
    17  H    1.062748   0.000000
    18  H    1.084606   1.759880   0.000000
    19  H    1.083555   1.760549   1.720951   0.000000
    20  C    6.420015   7.415092   6.359319   6.381430   0.000000
    21  N    7.525401   8.528846   7.432179   7.455146   1.123199
                   21
    21  N    0.000000
 Symmetry turned off by external request.
 Stoichiometry    C9H10N2
 Framework group  C1[X(C9H10N2)]
 Deg. of freedom    57
 Full point group                 C1      NOp   1
 Rotational constants (GHZ):           3.7005157           0.5971985           0.5173573
 Standard basis: VSTO-5G (5D, 7F)
    54 basis functions,   324 primitive gaussians,    54 cartesian basis functions
    28 alpha electrons       28 beta electrons
       nuclear repulsion energy       316.2883839508 Hartrees.
 Integral buffers will be    131072 words long.
 Regular integral format.
 Two-electron integral symmetry is turned off.
 Do NDO integrals.
 One-electron integrals computed using PRISM.
 NBasis=    54 RedAO= F EigKep=  0.00D+00  NBF=    54
 NBsUse=    54 1.00D-04 EigRej=  0.00D+00 NBFU=    54
 Initial guess from the checkpoint file:  "geometry.chk"
 B after Tr=    -0.000735    0.000002    0.000002
         Rot=    1.000000   -0.000000    0.000000   -0.000000 Ang=  -0.00 deg.
 Keep J ints in memory in canonical form, NReq=867381.
 Overlap will be assumed to be unity.
 Requested convergence on RMS density matrix=1.00D-08 within  32 cycles.
 Requested convergence on MAX density matrix=1.00D-06.
 Requested convergence on             energy=1.00D-06.
 No special actions if energy rises.
 SCF Done:  E(RAM1) =  0.154602214577     A.U. after   11 cycles
            NFock= 10  Conv=0.58D-08     -V/T= 1.0016
 QCSCF skips out because SCF is already converged.

 **********************************************************************

            Population analysis using the SCF Density.

 **********************************************************************

 Alpha  occ. eigenvalues --   -1.55629  -1.42661  -1.35798  -1.20147  -1.18334
 Alpha  occ. eigenvalues --   -1.09102  -0.99308  -0.87169  -0.84047  -0.73186
 Alpha  occ. eigenvalues --   -0.68333  -0.64172  -0.61582  -0.57618  -0.55844
 Alpha  occ. eigenvalues --   -0.54309  -0.54021  -0.53523  -0.51141  -0.51027
 Alpha  occ. eigenvalues --   -0.49573  -0.49491  -0.48889  -0.47226  -0.43428
 Alpha  occ. eigenvalues --   -0.41000  -0.37601  -0.31662
 Alpha virt. eigenvalues --    0.00778   0.01526   0.07142   0.08086   0.08673
 Alpha virt. eigenvalues --    0.11590   0.11691   0.12881   0.13621   0.14302
 Alpha virt. eigenvalues --    0.14611   0.14640   0.15317   0.15679   0.16442
 Alpha virt. eigenvalues --    0.16469   0.16895   0.17009   0.17677   0.18537
 Alpha virt. eigenvalues --    0.19360   0.20349   0.20759   0.21936   0.23305
 Alpha virt. eigenvalues --    0.25384
          Condensed to atoms (all electrons):
               1          2          3          4          5          6
     1  C    4.048262   0.000000   0.000000   0.000000   0.000000   0.000000
     2  C    0.000000   4.217603   0.000000   0.000000   0.000000   0.000000
     3  C    0.000000   0.000000   3.828855   0.000000   0.000000   0.000000
     4  C    0.000000   0.000000   0.000000   4.217548   0.000000   0.000000
     5  C    0.000000   0.000000   0.000000   0.000000   4.048218   0.000000
     6  C    0.000000   0.000000   0.000000   0.000000   0.000000   4.092335
     7  H    0.000000   0.000000   0.000000   0.000000   0.000000   0.000000
     8  H    0.000000   0.000000   0.000000   0.000000   0.000000   0.000000
     9  H    0.000000   0.000000   0.000000   0.000000   0.000000   0.000000
    10  H    0.000000   0.000000   0.000000   0.000000   0.000000   0.000000
    11  N    0.000000   0.000000   0.000000   0.000000   0.000000   0.000000
    12  C    0.000000   0.000000   0.000000   0.000000   0.000000   0.000000
    13  H    0.000000   0.000000   0.000000   0.000000   0.000000   0.000000
    14  H    0.000000   0.000000   0.000000   0.000000   0.000000   0.000000
    15  H    0.000000   0.000000   0.000000   0.000000   0.000000   0.000000
    16  C    0.000000   0.000000   0.000000   0.000000   0.000000   0.000000
    17  H    0.000000   0.000000   0.000000   0.000000   0.000000   0.000000
    18  H    0.000000   0.000000   0.000000   0.000000   0.000000   0.000000
    19  H    0.000000   0.000000   0.000000   0.000000   0.000000   0.000000
    20  C    0.000000   0.000000   0.000000   0.000000   0.000000   0.000000
    21  N    0.000000   0.000000   0.000000   0.000000   0.000000   0.000000
               7          8          9         10         11         12
     1  C    0.000000   0.000000   0.000000   0.000000   0.000000   0.000000
     2  C    0.000000   0.000000   0.000000   0.000000   0.000000   0.000000
     3  C    0.000000   0.000000   0.000000   0.000000   0.000000   0.000000
     4  C    0.000000   0.000000   0.000000   0.000000   0.000000   0.000000
     5  C    0.000000   0.000000   0.000000   0.000000   0.000000   0.000000
     6  C    0.000000   0.000000   0.000000   0.000000   0.000000   0.000000
     7  H    0.861253   0.000000   0.000000   0.000000   0.000000   0.000000
     8  H    0.000000   0.869433   0.000000   0.000000   0.000000   0.000000
     9  H    0.000000   0.000000   0.869436   0.000000   0.000000   0.000000
    10  H    0.000000   0.000000   0.000000   0.861273   0.000000   0.000000
    11  N    0.000000   0.000000   0.000000   0.000000   5.299070   0.000000
    12  C    0.000000   0.000000   0.000000   0.000000   0.000000   4.055895
    13  H    0.000000   0.000000   0.000000   0.000000   0.000000   0.000000
    14  H    0.000000   0.000000   0.000000   0.000000   0.000000   0.000000
    15  H    0.000000   0.000000   0.000000   0.000000   0.000000   0.000000
    16  C    0.000000   0.000000   0.000000   0.000000   0.000000   0.000000
    17  H    0.000000   0.000000   0.000000   0.000000   0.000000   0.000000
    18  H    0.000000   0.000000   0.000000   0.000000   0.000000   0.000000
    19  H    0.000000   0.000000   0.000000   0.000000   0.000000   0.000000
    20  C    0.000000   0.000000   0.000000   0.000000   0.000000   0.000000
    21  N    0.000000   0.000000   0.000000   0.000000   0.000000   0.000000
              13         14         15         16         17         18
     1  C    0.000000   0.000000   0.000000   0.000000   0.000000   0.000000
     2  C    0.000000   0.000000   0.000000   0.000000   0.000000   0.000000
     3  C    0.000000   0.000000   0.000000   0.000000   0.000000   0.000000
     4  C    0.000000   0.000000   0.000000   0.000000   0.000000   0.000000
     5  C    0.000000   0.000000   0.000000   0.000000   0.000000   0.000000
     6  C    0.000000   0.000000   0.000000   0.000000   0.000000   0.000000
     7  H    0.000000   0.000000   0.000000   0.000000   0.000000   0.000000
     8  H    0.000000   0.000000   0.000000   0.000000   0.000000   0.000000
     9  H    0.000000   0.000000   0.000000   0.000000   0.000000   0.000000
    10  H    0.000000   0.000000   0.000000   0.000000   0.000000   0.000000
    11  N    0.000000   0.000000   0.000000   0.000000   0.000000   0.000000
    12  C    0.000000   0.000000   0.000000   0.000000   0.000000   0.000000
    13  H    0.911729   0.000000   0.000000   0.000000   0.000000   0.000000
    14  H    0.000000   0.929406   0.000000   0.000000   0.000000   0.000000
    15  H    0.000000   0.000000   0.928747   0.000000   0.000000   0.000000
    16  C    0.000000   0.000000   0.000000   4.055885   0.000000   0.000000
    17  H    0.000000   0.000000   0.000000   0.000000   0.911671   0.000000
    18  H    0.000000   0.000000   0.000000   0.000000   0.000000   0.928795
    19  H    0.000000   0.000000   0.000000   0.000000   0.000000   0.000000
    20  C    0.000000   0.000000   0.000000   0.000000   0.000000   0.000000
    21  N    0.000000   0.000000   0.000000   0.000000   0.000000   0.000000
              19         20         21
     1  C    0.000000   0.000000   0.000000
     2  C    0.000000   0.000000   0.000000
     3  C    0.000000   0.000000   0.000000
     4  C    0.000000   0.000000   0.000000
     5  C    0.000000   0.000000   0.000000
     6  C    0.000000   0.000000   0.000000
     7  H    0.000000   0.000000   0.000000
     8  H    0.000000   0.000000   0.000000
     9  H    0.000000   0.000000   0.000000
    10  H    0.000000   0.000000   0.000000
    11  N    0.000000   0.000000   0.000000
    12  C    0.000000   0.000000   0.000000
    13  H    0.000000   0.000000   0.000000
    14  H    0.000000   0.000000   0.000000
    15  H    0.000000   0.000000   0.000000
    16  C    0.000000   0.000000   0.000000
    17  H    0.000000   0.000000   0.000000
    18  H    0.000000   0.000000   0.000000
    19  H    0.929449   0.000000   0.000000
    20  C    0.000000   4.079571   0.000000
    21  N    0.000000   0.000000   5.055566
 Mulliken charges:
               1
     1  C   -0.048262
     2  C   -0.217603
     3  C    0.171145
     4  C   -0.217548
     5  C   -0.048218
     6  C   -0.092335
     7  H    0.138747
     8  H    0.130567
     9  H    0.130564
    10  H    0.138727
    11  N   -0.299070
    12  C   -0.055895
    13  H    0.088271
    14  H    0.070594
    15  H    0.071253
    16  C   -0.055885
    17  H    0.088329
    18  H    0.071205
    19  H    0.070551
    20  C   -0.079571
    21  N   -0.055566
 Sum of Mulliken charges =   0.00000
 Mulliken charges with hydrogens summed into heavy atoms:
               1
     1  C    0.090485
     2  C   -0.087036
     3  C    0.171145
     4  C   -0.086984
     5  C    0.090509
     6  C   -0.092335
    11  N   -0.299070
    12  C    0.174223
    16  C    0.174200
    20  C   -0.079571
    21  N   -0.055566
 Charge=              0.0000 electrons
 Dipole moment (field-independent basis, Debye):
    X=              5.4507    Y=             -0.0008    Z=              0.0182  Tot=              5.4508
 N-N= 3.162883839508D+02 E-N=-4.941099368881D+02  KE=-9.724117317074D+01
 Calling FoFJK, ICntrl=      2127 FMM=F ISym2X=0 I1Cent= 0 IOpClX= 0 NMat=1 NMatS=1 NMatT=0.
 -------------------------------------------------------------------
 Center     Atomic                   Forces (Hartrees/Bohr)
 Number     Number              X              Y              Z
 -------------------------------------------------------------------
      1        6          -0.044919774   -0.027846381    0.000241805
      2        6          -0.029109014   -0.112954286    0.000095594
      3        6           0.056600824   -0.000130718    0.000120284
      4        6          -0.029108832    0.113042576   -0.000005097
      5        6          -0.045010542    0.027852030    0.000001285
      6        6          -0.074699615   -0.000138537   -0.000130135
      7        1           0.004888685   -0.019710426   -0.000004070
      8        1           0.015508205   -0.023953380    0.000088471
      9        1           0.015522160    0.023992387   -0.000029666
     10        1           0.004862156    0.019808307   -0.000048947
     11        7           0.095808086   -0.000149837   -0.000119131
     12        6          -0.030566292    0.017606761   -0.000234716
     13        1           0.041840990    0.007622956   -0.000047705
     14        1          -0.005488609   -0.013982863    0.028218433
     15        1          -0.005492566   -0.013913907   -0.027839182
     16        6          -0.030631833   -0.017301132   -0.000749076
     17        1           0.041783657   -0.007625562   -0.000658124
     18        1          -0.005632162    0.014226545   -0.027418323
     19        1          -0.005225144    0.013505156    0.028488341
     20        6           0.147368813    0.000047768    0.000098049
     21        7          -0.118299192    0.000002543   -0.000068089
 -------------------------------------------------------------------
 Cartesian Forces:  Max     0.147368813 RMS     0.039658281

 GradGradGradGradGradGradGradGradGradGradGradGradGradGradGradGradGradGrad
 Berny optimization.
 Search for a local minimum.
 Step number   1 out of a maximum of    2
 All quantities printed in internal units (Hartrees-Bohrs-Radians)
 Second derivative matrix not updated -- first step.
 ITU=  0
     Eigenvalues ---    0.00231   0.00271   0.00379   0.00679   0.00685
     Eigenvalues ---    0.01267   0.01593   0.01852   0.02210   0.03076
     Eigenvalues ---    0.03251   0.03628   0.04655   0.06145   0.06413
     Eigenvalues ---    0.06605   0.06616   0.07160   0.07389   0.09798
     Eigenvalues ---    0.10550   0.12072   0.13416   0.13523   0.13998
     Eigenvalues ---    0.14406   0.15304   0.16294   0.18736   0.20113
     Eigenvalues ---    0.21337   0.22977   0.29436   0.32166   0.35852
     Eigenvalues ---    0.37527   0.42466   0.44585   0.49369   0.54416
     Eigenvalues ---    0.58731   0.73648   0.74573   0.90890   0.93271
     Eigenvalues ---    0.95953   1.00611   1.05537   1.09204   1.25684
     Eigenvalues ---    1.26536   1.42595   1.58346   1.66624   1.93644
     Eigenvalues ---    1.98159   3.33510
 Quadratic step=1.099D+00 exceeds max=3.000D-01 adjusted using Lamda=-3.531D-01.
 Angle between NR and scaled steps=  39.41 degrees.
 Angle between quadratic step and forces=  36.88 degrees.
 Linear search not attempted -- first point.
 B after Tr=    -0.003170   -0.000005   -0.000016
         Rot=    1.000000    0.000002   -0.000003   -0.000001 Ang=   0.00 deg.
 Variable       Old X    -DE/DX   Delta X   Delta X   Delta X     New X
                                 (Linear)    (Quad)   (Total)
    X1       -1.96057  -0.04492   0.00000  -0.06051  -0.06367  -2.02424
    Y1       -2.21463  -0.02785   0.00000  -0.04643  -0.04644  -2.26107
    Z1        0.00327   0.00024   0.00000   0.00037   0.00038   0.00364
    X2        0.59510  -0.02911   0.00000  -0.02009  -0.02326   0.57184
    Y2       -2.15075  -0.11295   0.00000  -0.10607  -0.10608  -2.25683
    Z2        0.00519   0.00010   0.00000  -0.00005  -0.00006   0.00513
    X3        1.90567   0.05660   0.00000   0.04188   0.03871   1.94438
    Y3        0.00052  -0.00013   0.00000  -0.00009  -0.00010   0.00043
    Z3       -0.00294   0.00012   0.00000   0.00024   0.00021  -0.00273
    X4        0.59479  -0.02911   0.00000  -0.02007  -0.02325   0.57154
    Y4        2.15133   0.11304   0.00000   0.10607   0.10606   2.25739
    Z4       -0.00453  -0.00001   0.00000   0.00019   0.00016  -0.00437
    X5       -1.96080  -0.04501   0.00000  -0.06059  -0.06376  -2.02457
    Y5        2.21458   0.02785   0.00000   0.04642   0.04641   2.26099
    Z5       -0.00155   0.00000   0.00000  -0.00002  -0.00003  -0.00158
    X6       -3.29774  -0.07470   0.00000  -0.06281  -0.06598  -3.36372
    Y6       -0.00002  -0.00014   0.00000  -0.00009  -0.00010  -0.00012
    Z6        0.00113  -0.00013   0.00000  -0.00015  -0.00015   0.00098
    X7       -3.16188   0.00489   0.00000  -0.00934  -0.01251  -3.17439
    Y7       -3.88086  -0.01971   0.00000  -0.06042  -0.06043  -3.94129
    Z7        0.00750  -0.00000   0.00000   0.00006   0.00008   0.00758
    X8        1.46492   0.01551   0.00000   0.03111   0.02794   1.49287
    Y8       -3.97994  -0.02395   0.00000  -0.07839  -0.07839  -4.05834
    Z8        0.00984   0.00009   0.00000   0.00016   0.00016   0.01000
    X9        1.46437   0.01552   0.00000   0.03114   0.02797   1.49234
    Y9        3.98055   0.02399   0.00000   0.07844   0.07844   4.05899
    Z9       -0.00554  -0.00003   0.00000  -0.00000  -0.00004  -0.00558
   X10       -3.16278   0.00486   0.00000  -0.00939  -0.01257  -3.17535
   Y10        3.88010   0.01981   0.00000   0.06059   0.06058   3.94067
   Z10       -0.00014  -0.00005   0.00000  -0.00011  -0.00012  -0.00026
   X11        4.43224   0.09581   0.00000   0.09423   0.09106   4.52330
   Y11        0.00034  -0.00015   0.00000  -0.00011  -0.00011   0.00022
   Z11       -0.00930  -0.00012   0.00000  -0.00035  -0.00039  -0.00969
   X12        5.85428  -0.03057   0.00000   0.00747   0.00430   5.85858
   Y12       -2.32669   0.01761   0.00000  -0.00441  -0.00441  -2.33110
   Z12       -0.00096  -0.00023   0.00000   0.00002  -0.00002  -0.00098
   X13        7.82524   0.04184   0.00000   0.06257   0.05940   7.88464
   Y13       -1.94158   0.00762   0.00000   0.00417   0.00417  -1.93741
   Z13       -0.00346  -0.00005   0.00000  -0.00001  -0.00007  -0.00353
   X14        5.35982  -0.00549   0.00000  -0.00548  -0.00864   5.35118
   Y14       -3.46409  -0.01398   0.00000  -0.01605  -0.01605  -3.48014
   Z14        1.62858   0.02822   0.00000   0.04319   0.04316   1.67174
   X15        5.35823  -0.00549   0.00000  -0.00552  -0.00870   5.34953
   Y15       -3.47447  -0.01391   0.00000  -0.01599  -0.01599  -3.49047
   Z15       -1.62388  -0.02784   0.00000  -0.04267  -0.04270  -1.66659
   X16        5.85575  -0.03063   0.00000   0.00739   0.00422   5.85997
   Y16        2.32594  -0.01730   0.00000   0.00460   0.00460   2.33054
   Z16        0.00891  -0.00075   0.00000  -0.00061  -0.00067   0.00824
   X17        7.82628   0.04178   0.00000   0.06245   0.05928   7.88557
   Y17        1.94002  -0.00763   0.00000  -0.00413  -0.00413   1.93589
   Z17       -0.02794  -0.00066   0.00000  -0.00075  -0.00082  -0.02876
   X18        5.33670  -0.00563   0.00000  -0.00565  -0.00884   5.32786
   Y18        3.49034   0.01423   0.00000   0.01676   0.01676   3.50710
   Z18       -1.59596  -0.02742   0.00000  -0.04235  -0.04241  -1.63838
   X19        5.38509  -0.00523   0.00000  -0.00520  -0.00836   5.37673
   Y19        3.44838   0.01351   0.00000   0.01514   0.01515   3.46353
   Z19        1.65553   0.02849   0.00000   0.04342   0.04336   1.69889
   X20       -6.05115   0.14737   0.00000   0.02988   0.02671  -6.02444
   Y20       -0.00056   0.00005   0.00000   0.00009   0.00008  -0.00048
   Z20        0.00014   0.00010   0.00000  -0.00002  -0.00000   0.00013
   X21       -8.17369  -0.11830   0.00000  -0.03688  -0.04005  -8.21375
   Y21        0.00003   0.00000   0.00000  -0.00001  -0.00003  -0.00000
   Z21       -0.00133  -0.00007   0.00000  -0.00003   0.00000  -0.00133
         Item               Value     Threshold  Converged?
 Maximum Force            0.147369     0.000450     NO 
 RMS     Force            0.039658     0.000300     NO 
 Maximum Displacement     0.106078     0.001800     NO 
 RMS     Displacement     0.037758     0.001200     NO 
 Predicted change in Energy=-5.367067D-02
 GradGradGradGradGradGradGradGradGradGradGradGradGradGradGradGradGradGrad

 Unable to Open any file for archive entry.
 1\1\GINC-BHG0001\Force\RAM1\ZDO\C9H10N2\BWEIGHT\02-Feb-2023\0\\# AM1/S
 TO-5G SCF=XQC FORCE nosym guess=read\\MD Step 3\\0,1\C,-1.03748781,-1.
 17193354,0.00172886\C,0.31491196,-1.13813049,0.00274636\C,1.00843593,0
 .00027577,-0.0015556\C,0.31474833,1.13843285,-0.00239973\C,-1.03761142
 ,1.17190517,-0.00081988\C,-1.74508758,-0.00000902,0.00059803\H,-1.6731
 9633,-2.05366278,0.00396793\H,0.77520377,-2.10609613,0.00520708\H,0.77
 491165,2.10641566,-0.00293081\H,-1.67367106,2.05325811,-0.00007373\N,2
 .34544176,0.00017786,-0.00491988\C,3.09795158,-1.23123169,-0.0005066\H
 ,4.14093768,-1.02744246,-0.00183076\H,2.83629609,-1.83311899,0.8618070
 2\H,2.8354537,-1.83861216,-0.85932099\C,3.0987314,1.23083201,0.0047171
 1\H,4.14149153,1.02661619,-0.01478408\H,2.82406081,1.84701003,-0.84454
 788\H,2.84966707,1.82480417,0.8760692\C,-3.20213324,-0.0002951,0.00007
 327\N,-4.32533184,0.00001391,-0.00070529\\Version=ES64L-G16RevC.01\HF=
 0.1546022\RMSD=5.782e-09\RMSF=3.966e-02\Dipole=2.1444795,-0.0003158,0.
 007141\PG=C01 [X(C9H10N2)]\\@
 The archive entry for this job was punched.


 Sometimes the fool who rushes in gets the job done.
                                    -- Al Bernstein
 Job cpu time:       0 days  0 hours  0 minutes 23.3 seconds.
 Elapsed time:       0 days  0 hours  0 minutes  2.9 seconds.
 File lengths (MBytes):  RWF=    272 Int=      0 D2E=      0 Chk=     32 Scr=     32
 Normal termination of Gaussian 16 at Thu Feb  2 19:07:22 2023.
