 Entering Gaussian System, Link 0=g16
 Initial command:
 /software/gaussian/g16-c01/avx/g16/l1.exe "/gpfs/fs2/scratch/bweight/software/many_molecule_many_mode_NAMD/src/NAMD/test_output/G16/TD_NEW_S2/Gau-31173.inp" -scrdir="/gpfs/fs2/scratch/bweight/software/many_molecule_many_mode_NAMD/src/NAMD/test_output/G16/TD_NEW_S2/"
 Entering Link 1 = /software/gaussian/g16-c01/avx/g16/l1.exe PID=     31174.
  
 Copyright (c) 1988-2019, Gaussian, Inc.  All Rights Reserved.
  
 This is part of the Gaussian(R) 16 program.  It is based on
 the Gaussian(R) 09 system (copyright 2009, Gaussian, Inc.),
 the Gaussian(R) 03 system (copyright 2003, Gaussian, Inc.),
 the Gaussian(R) 98 system (copyright 1998, Gaussian, Inc.),
 the Gaussian(R) 94 system (copyright 1995, Gaussian, Inc.),
 the Gaussian 92(TM) system (copyright 1992, Gaussian, Inc.),
 the Gaussian 90(TM) system (copyright 1990, Gaussian, Inc.),
 the Gaussian 88(TM) system (copyright 1988, Gaussian, Inc.),
 the Gaussian 86(TM) system (copyright 1986, Carnegie Mellon
 University), and the Gaussian 82(TM) system (copyright 1983,
 Carnegie Mellon University). Gaussian is a federally registered
 trademark of Gaussian, Inc.
  
 This software contains proprietary and confidential information,
 including trade secrets, belonging to Gaussian, Inc.
  
 This software is provided under written license and may be
 used, copied, transmitted, or stored only in accord with that
 written license.
  
 The following legend is applicable only to US Government
 contracts under FAR:
  
                    RESTRICTED RIGHTS LEGEND
  
 Use, reproduction and disclosure by the US Government is
 subject to restrictions as set forth in subparagraphs (a)
 and (c) of the Commercial Computer Software - Restricted
 Rights clause in FAR 52.227-19.
  
 Gaussian, Inc.
 340 Quinnipiac St., Bldg. 40, Wallingford CT 06492
  
  
 ---------------------------------------------------------------
 Warning -- This program may not be used in any manner that
 competes with the business of Gaussian, Inc. or will provide
 assistance to any competitor of Gaussian, Inc.  The licensee
 of this program is prohibited from giving any competitor of
 Gaussian, Inc. access to this program.  By using this program,
 the user acknowledges that Gaussian, Inc. is engaged in the
 business of creating and licensing software in the field of
 computational chemistry and represents and warrants to the
 licensee that it is not a competitor of Gaussian, Inc. and that
 it will not use this program in any manner prohibited above.
 ---------------------------------------------------------------
  

 Cite this work as:
 Gaussian 16, Revision C.01,
 M. J. Frisch, G. W. Trucks, H. B. Schlegel, G. E. Scuseria, 
 M. A. Robb, J. R. Cheeseman, G. Scalmani, V. Barone, 
 G. A. Petersson, H. Nakatsuji, X. Li, M. Caricato, A. V. Marenich, 
 J. Bloino, B. G. Janesko, R. Gomperts, B. Mennucci, H. P. Hratchian, 
 J. V. Ortiz, A. F. Izmaylov, J. L. Sonnenberg, D. Williams-Young, 
 F. Ding, F. Lipparini, F. Egidi, J. Goings, B. Peng, A. Petrone, 
 T. Henderson, D. Ranasinghe, V. G. Zakrzewski, J. Gao, N. Rega, 
 G. Zheng, W. Liang, M. Hada, M. Ehara, K. Toyota, R. Fukuda, 
 J. Hasegawa, M. Ishida, T. Nakajima, Y. Honda, O. Kitao, H. Nakai, 
 T. Vreven, K. Throssell, J. A. Montgomery, Jr., J. E. Peralta, 
 F. Ogliaro, M. J. Bearpark, J. J. Heyd, E. N. Brothers, K. N. Kudin, 
 V. N. Staroverov, T. A. Keith, R. Kobayashi, J. Normand, 
 K. Raghavachari, A. P. Rendell, J. C. Burant, S. S. Iyengar, 
 J. Tomasi, M. Cossi, J. M. Millam, M. Klene, C. Adamo, R. Cammi, 
 J. W. Ochterski, R. L. Martin, K. Morokuma, O. Farkas, 
 J. B. Foresman, and D. J. Fox, Gaussian, Inc., Wallingford CT, 2019.
 
 ******************************************
 Gaussian 16:  ES64L-G16RevC.01  3-Jul-2019
                12-Jan-2023 
 ******************************************
 %oldchk=../TD_NEW_S1/geometry.chk
 %chk=geometry.chk
 %nprocshared=12
 Will use up to   12 processors via shared memory.
 %mem=5GB
 Copying data from "../TD_NEW_S1/geometry.chk" to current chk file "geometry.chk"
 IOpt=  2 FromEx=T IUOpen= 4 IOptOp= 5 NList=   0 IFRang= 0 IUIn= 4 IUOut= 2.
 ----------------------------------------------------------------------
 # WB97XD/6-311G SCF=XQC TD=(read,singlets,nstates=3,root=2) FORCE nosy
 m pop=full guess=read
 ----------------------------------------------------------------------
 1/10=7,30=1,38=1/1,3;
 2/12=2,15=1,17=6,18=5,40=1/2;
 3/5=4,6=6,11=9,25=1,30=1,71=1,74=-58,116=-2/1,2,3,8;
 4/5=1/1;
 5/5=2,8=3,13=1,38=6/2,8;
 8/6=1,10=2,107=2,108=3/1;
 9/8=2,15=2,41=3,42=1,48=1,49=3,70=2/14;
 10/5=4,28=2,31=1/2;
 6/7=3,18=1/1;
 7/12=6,13=5,14=2,29=1,30=1/1,2,3,16;
 1/10=7,30=1/3;
 99//99;
 ----------
 MD Step 79
 ----------
 Symbolic Z-matrix:
 Charge =  0 Multiplicity = 1
 C                    -0.33423  -0.58213   0.00716 
 H                     0.18061  -1.53634  -0.02502 
 H                    -1.42537  -0.61649  -0.02389 
 C                     0.34236   0.59218   0.00525 
 H                    -0.21028   1.50341  -0.02872 
 H                     1.40174   0.5733   -0.02723 
 

 GradGradGradGradGradGradGradGradGradGradGradGradGradGradGradGradGradGrad
 Berny optimization.
 Initialization pass.
 Trust Radius=3.00D-01 FncErr=1.00D-07 GrdErr=1.00D-07 EigMax=2.50D+02 EigMin=1.00D-04
 Number of steps in this run=      2 maximum allowed number of steps=      2.
 GradGradGradGradGradGradGradGradGradGradGradGradGradGradGradGradGradGrad

                          Input orientation:                          
 ---------------------------------------------------------------------
 Center     Atomic      Atomic             Coordinates (Angstroms)
 Number     Number       Type             X           Y           Z
 ---------------------------------------------------------------------
      1          6           0       -0.334228   -0.582129    0.007158
      2          1           0        0.180611   -1.536343   -0.025020
      3          1           0       -1.425368   -0.616492   -0.023893
      4          6           0        0.342360    0.592178    0.005253
      5          1           0       -0.210278    1.503412   -0.028715
      6          1           0        1.401745    0.573298   -0.027227
 ---------------------------------------------------------------------
                    Distance matrix (angstroms):
                    1          2          3          4          5
     1  C    0.000000
     2  H    1.084721   0.000000
     3  H    1.092122   1.850755   0.000000
     4  C    1.355276   2.134873   2.141634   0.000000
     5  H    2.089529   3.064787   2.443452   1.066260   0.000000
     6  H    2.085616   2.437572   3.067275   1.060050   1.861111
                    6
     6  H    0.000000
 Symmetry turned off by external request.
 Stoichiometry    C2H4
 Framework group  C1[X(C2H4)]
 Deg. of freedom    12
 Full point group                 C1      NOp   1
 Rotational constants (GHZ):         145.4276317          29.6758662          24.6552632
 Standard basis: 6-311G (5D, 7F)
    38 basis functions,    72 primitive gaussians,    38 cartesian basis functions
     8 alpha electrons        8 beta electrons
       nuclear repulsion energy        33.2244964348 Hartrees.
 NAtoms=    6 NActive=    6 NUniq=    6 SFac= 1.00D+00 NAtFMM=   60 NAOKFM=F Big=F
 Integral buffers will be    131072 words long.
 Raffenetti 1 integral format.
 Two-electron integral symmetry is turned off.
 Nuclear repulsion after empirical dispersion term =       33.2236485301 Hartrees.
 One-electron integrals computed using PRISM.
 NBasis=    38 RedAO= T EigKep=  6.71D-03  NBF=    38
 NBsUse=    38 1.00D-06 EigRej= -1.00D+00 NBFU=    38
 Initial guess from the checkpoint file:  "geometry.chk"
 B after Tr=     0.000000    0.000000    0.000000
         Rot=    1.000000    0.000000    0.000000    0.000000 Ang=   0.00 deg.
 Keep R1 ints in memory in canonical form, NReq=10950580.
 Requested convergence on RMS density matrix=1.00D-08 within  32 cycles.
 Requested convergence on MAX density matrix=1.00D-06.
 Requested convergence on             energy=1.00D-06.
 No special actions if energy rises.
 SCF Done:  E(RwB97XD) =  -78.5552896331     A.U. after    1 cycles
            NFock=  1  Conv=0.35D-09     -V/T= 2.0040
 QCSCF skips out because SCF is already converged.
 DoSCS=F DFT=T ScalE2(SS,OS)=  1.000000  1.000000
 ExpMin= 1.03D-01 ExpMax= 4.56D+03 ExpMxC= 6.82D+02 IAcc=3 IRadAn=         5 AccDes= 0.00D+00
 HarFok:  IExCor=  205 AccDes= 0.00D+00 IRadAn=         5 IDoV=-2 UseB2=F ITyADJ=14
 ICtDFT= 12500011 ScaDFX=  1.000000  1.000000  1.000000  1.000000
 Range of M.O.s used for correlation:     3    38
 NBasis=    38 NAE=     8 NBE=     8 NFC=     2 NFV=     0
 NROrb=     36 NOA=     6 NOB=     6 NVA=    30 NVB=    30
 Keep R1, R2, and R3 ints in memory in canonical form, NReq=12287288.
 Generating guess from checkpoint file densities.
 Convergence on wavefunction:    0.000001000000000
 Iteration     1 Dimension     6 NMult     0 NNew      6
 CISAX will form     6 AO SS matrices at one time.
 Iteration     2 Dimension    12 NMult     6 NNew      6
 ***********************************************************************
 Excited states from <AA,BB:AA,BB> singles matrix:
 ***********************************************************************
 
 Ground to excited state transition densities written to RWF  633
 Ground to excited state transition electric dipole moments (Au):
       state          X           Y           Z        Dip. S.      Osc.
         1         0.7128      1.2371      0.0013      2.0386      0.3986
         2         0.0100     -0.0205      0.0562      0.0037      0.0008
         3        -0.0065     -0.0063      0.3811      0.1453      0.0301
 Ground to excited state transition velocity dipole moments (Au):
       state          X           Y           Z        Dip. S.      Osc.
         1        -0.1813     -0.3145     -0.0007      0.1318      0.2995
         2        -0.0054      0.0071     -0.0217      0.0006      0.0012
         3         0.0021      0.0015     -0.1501      0.0225      0.0483
 Ground to excited state transition magnetic dipole moments (Au):
       state          X           Y           Z
         1        -0.0727      0.0298     -0.0027
         2        -0.6837     -1.1828     -0.0007
         3         0.0869      0.1653     -0.0023
 Ground to excited state transition velocity quadrupole moments (Au):
       state          XX          YY          ZZ          XY          XZ          YZ
         1         0.0035     -0.0008      0.0020     -0.0001     -0.0091     -0.0194
         2         0.0008     -0.0031      0.0012      0.0017      0.2054     -0.1165
         3        -0.0099     -0.0082      0.0091      0.0038     -0.0221      0.0235
 <0|del|b> * <b|rxdel|0> + <0|del|b> * <b|delr+rdel|0>
 Rotatory Strengths (R) in cgs (10**-40 erg-esu-cm/Gauss)
       state          XX          YY          ZZ    R(velocity)    E-M Angle
         1       -14.7549     20.1363      3.8176      3.0664       82.32
         2       -11.2823      5.0126     -4.4155     -3.5617       98.38
         3         0.0760      1.3043      0.3945      0.5916       88.41
 1/2[<0|r|b>*<b|rxdel|0> + (<0|rxdel|b>*<b|r|0>)*]
 Rotatory Strengths (R) in cgs (10**-40 erg-esu-cm/Gauss)
       state          XX          YY          ZZ     R(length)
         1        36.6632    -26.0616      0.0024      3.5347
         2         4.8223    -17.1852      0.0287     -4.1114
         3         0.3981      0.7389      0.6299      0.5890
  1/2[<0|del|b>*<b|r|0> + (<0|r|b>*<b|del|0>)*] (Au)
       state          X           Y           Z        Dip. S.   Osc.(frdel)
         1        -0.1292     -0.3891     -0.0000      0.5183      0.3455
         2        -0.0001     -0.0001     -0.0012      0.0014      0.0009
         3        -0.0000     -0.0000     -0.0572      0.0572      0.0381

 Excitation energies and oscillator strengths:
 
 Excited state symmetry could not be determined.
 Excited State   1:      Singlet-?Sym    7.9806 eV  155.36 nm  f=0.3986  <S**2>=0.000
       8 ->  9         0.70138
 
 Excited state symmetry could not be determined.
 Excited State   2:      Singlet-?Sym    8.4290 eV  147.09 nm  f=0.0008  <S**2>=0.000
       7 ->  9         0.69191
       8 -> 11         0.10242
 This state for optimization and/or second-order correction.
 Total Energy, E(TD-HF/TD-DFT) =  -78.2455309677    
 Copying the excited state density for this state as the 1-particle RhoCI density.
 
 Excited state symmetry could not be determined.
 Excited State   3:      Singlet-?Sym    8.4556 eV  146.63 nm  f=0.0301  <S**2>=0.000
       8 -> 10         0.69887
 SavETr:  write IOETrn=   770 NScale= 10 NData=  16 NLR=1 NState=    3 LETran=      64.
          IDoAtm=111111
          Differentiating once with respect to electric field.
                with respect to dipole field.
          Differentiating once with respect to nuclear coordinates.
 Keep R1 ints in memory in canonical form, NReq=10954370.
          There are     1 degrees of freedom in the 1st order CPHF.  IDoFFX=0 NUNeed=     1.
 LinEq1:  Iter=  0 NonCon=     1 RMS=1.29D-02 Max=8.11D-02 NDo=     1
 AX will form     1 AO Fock derivatives at one time.
 LinEq1:  Iter=  1 NonCon=     1 RMS=4.94D-03 Max=2.77D-02 NDo=     1
 LinEq1:  Iter=  2 NonCon=     1 RMS=2.36D-03 Max=2.10D-02 NDo=     1
 LinEq1:  Iter=  3 NonCon=     1 RMS=4.17D-04 Max=2.10D-03 NDo=     1
 LinEq1:  Iter=  4 NonCon=     1 RMS=5.61D-05 Max=3.35D-04 NDo=     1
 LinEq1:  Iter=  5 NonCon=     1 RMS=7.91D-06 Max=5.64D-05 NDo=     1
 LinEq1:  Iter=  6 NonCon=     1 RMS=9.58D-07 Max=4.58D-06 NDo=     1
 LinEq1:  Iter=  7 NonCon=     1 RMS=1.04D-07 Max=4.18D-07 NDo=     1
 LinEq1:  Iter=  8 NonCon=     1 RMS=1.20D-08 Max=5.98D-08 NDo=     1
 LinEq1:  Iter=  9 NonCon=     1 RMS=1.25D-09 Max=6.01D-09 NDo=     1
 LinEq1:  Iter= 10 NonCon=     1 RMS=2.42D-10 Max=1.64D-09 NDo=     1
 LinEq1:  Iter= 11 NonCon=     0 RMS=3.20D-11 Max=2.01D-10 NDo=     1
 Linear equations converged to 1.000D-10 1.000D-09 after    11 iterations.
 End of Minotr F.D. properties file   721 does not exist.
 End of Minotr F.D. properties file   722 does not exist.
 End of Minotr F.D. properties file   788 does not exist.

 **********************************************************************

            Population analysis using the SCF Density.

 **********************************************************************

 Alpha  occ. eigenvalues --  -10.28727 -10.28311  -0.86301  -0.67750  -0.56743
 Alpha  occ. eigenvalues --   -0.50334  -0.44687  -0.35323
 Alpha virt. eigenvalues --    0.07677   0.14265   0.17006   0.17583   0.24148
 Alpha virt. eigenvalues --    0.37012   0.39096   0.40771   0.47467   0.49623
 Alpha virt. eigenvalues --    0.49663   0.59071   0.67237   0.70592   0.77335
 Alpha virt. eigenvalues --    0.78237   0.85113   0.93888   2.22680   2.30015
 Alpha virt. eigenvalues --    2.33519   2.41896   2.67026   2.82024   2.87152
 Alpha virt. eigenvalues --    2.95613   3.12690   3.34694  23.36801  23.69976
     Molecular Orbital Coefficients:
                           1         2         3         4         5
                           O         O         O         O         O
     Eigenvalues --   -10.28727 -10.28311  -0.86301  -0.67750  -0.56743
   1 1   C  1S          0.56093  -0.05282  -0.08593  -0.06969   0.00026
   2        2S          0.46168  -0.04328  -0.13568  -0.11168   0.00042
   3        2PX        -0.00002   0.00017   0.02540  -0.03606   0.11926
   4        2PY        -0.00003   0.00030   0.04302  -0.06463  -0.07122
   5        2PZ        -0.00001   0.00000  -0.00133  -0.00200  -0.00010
   6        3S          0.01435  -0.00218   0.36336   0.30555  -0.00114
   7        3PX         0.00024  -0.00068   0.03264  -0.05745   0.18579
   8        3PY         0.00040  -0.00119   0.05529  -0.10230  -0.11046
   9        3PZ        -0.00004  -0.00000  -0.00221  -0.00355  -0.00015
  10        4S         -0.01293   0.00702   0.18909   0.23394  -0.00094
  11        4PX        -0.00100   0.00177   0.00581  -0.02502   0.10058
  12        4PY        -0.00171   0.00308   0.00985  -0.04355  -0.05929
  13        4PZ         0.00008  -0.00002  -0.00083  -0.00174  -0.00007
  14 2   H  1S         -0.00009  -0.00004   0.05233   0.09431   0.09017
  15        2S          0.00001  -0.00032   0.05271   0.11104   0.11054
  16        3S          0.00186   0.00027  -0.00083   0.01589   0.03388
  17 3   H  1S         -0.00008  -0.00004   0.05131   0.09245  -0.08857
  18        2S          0.00001  -0.00032   0.05211   0.10936  -0.10905
  19        3S          0.00183   0.00026  -0.00089   0.01539  -0.03353
  20 4   C  1S          0.05265   0.56089  -0.08824   0.06727   0.00020
  21        2S          0.04353   0.46165  -0.13945   0.10769   0.00033
  22        2PX        -0.00016   0.00003  -0.02344  -0.03676   0.13798
  23        2PY        -0.00029   0.00004  -0.04169  -0.06214  -0.07688
  24        2PZ         0.00000  -0.00001  -0.00135   0.00235   0.00001
  25        3S          0.00057   0.01473   0.37369  -0.29417  -0.00090
  26        3PX         0.00063  -0.00034  -0.03174  -0.05745   0.21422
  27        3PY         0.00108  -0.00060  -0.05627  -0.09773  -0.11976
  28        3PZ        -0.00002  -0.00004  -0.00227   0.00401   0.00003
  29        4S          0.00433  -0.01432   0.19141  -0.22059  -0.00084
  30        4PX        -0.00158   0.00133  -0.00463  -0.02335   0.10923
  31        4PY        -0.00272   0.00231  -0.00843  -0.04061  -0.06149
  32        4PZ         0.00001   0.00008  -0.00080   0.00187   0.00002
  33 5   H  1S         -0.00004  -0.00010   0.05665  -0.09087  -0.10579
  34        2S         -0.00031   0.00008   0.05656  -0.10642  -0.12909
  35        3S          0.00067   0.00187  -0.00136  -0.01483  -0.04022
  36 6   H  1S         -0.00005  -0.00011   0.05757  -0.09253   0.10737
  37        2S         -0.00031   0.00008   0.05706  -0.10795   0.13052
  38        3S          0.00068   0.00189  -0.00137  -0.01531   0.04064
                           6         7         8         9        10
                           O         O         O         V         V
     Eigenvalues --    -0.50334  -0.44687  -0.35323   0.07677   0.14265
   1 1   C  1S          0.00814   0.00024  -0.00089  -0.00255  -0.03742
   2        2S          0.01279   0.00040  -0.00146  -0.00423  -0.06019
   3        2PX        -0.09657   0.12848  -0.00316  -0.00139  -0.03746
   4        2PY        -0.16529  -0.07402  -0.00604  -0.00263  -0.06014
   5        2PZ        -0.00519  -0.00030   0.17819   0.18972  -0.00316
   6        3S         -0.04139  -0.00106   0.00432   0.01285   0.13339
   7        3PX        -0.14323   0.20300  -0.00439  -0.00222  -0.04521
   8        3PY        -0.24425  -0.11641  -0.00844  -0.00424  -0.07108
   9        3PZ        -0.00822  -0.00046   0.28553   0.27899  -0.00482
  10        4S          0.02419  -0.00228   0.00693   0.01217   1.29055
  11        4PX        -0.07502   0.12299  -0.00354  -0.01195  -0.24716
  12        4PY        -0.12721  -0.07026  -0.00672  -0.02157  -0.40632
  13        4PZ        -0.00484  -0.00030   0.27069   0.68438  -0.01873
  14 2   H  1S          0.07636   0.12582   0.00034  -0.00413  -0.01327
  15        2S          0.10453   0.19139   0.00245  -0.00663  -0.03920
  16        3S          0.03974   0.08736   0.00141  -0.01583  -0.86325
  17 3   H  1S          0.07789  -0.12626   0.00001  -0.00397  -0.01503
  18        2S          0.10694  -0.19284   0.00181  -0.00623  -0.04300
  19        3S          0.04076  -0.08814   0.00103  -0.01545  -0.89305
  20 4   C  1S          0.00479  -0.00017  -0.00106   0.00255  -0.03251
  21        2S          0.00743  -0.00028  -0.00173   0.00424  -0.05221
  22        2PX         0.09534  -0.11485   0.00351  -0.00144   0.03153
  23        2PY         0.16809   0.06650   0.00662  -0.00285   0.05888
  24        2PZ        -0.00592  -0.00029   0.17830  -0.18913  -0.00242
  25        3S         -0.02618   0.00072   0.00504  -0.01302   0.11329
  26        3PX         0.13971  -0.17957   0.00500  -0.00227   0.03790
  27        3PY         0.24720   0.10443   0.00949  -0.00447   0.07229
  28        3PZ        -0.00925  -0.00047   0.28740  -0.27947  -0.00381
  29        4S          0.03731   0.00177   0.00713  -0.01080   1.21738
  30        4PX         0.07162  -0.10554   0.00426  -0.01233   0.19689
  31        4PY         0.12718   0.06156   0.00796  -0.02262   0.36344
  32        4PZ        -0.00527  -0.00033   0.27047  -0.68279  -0.01496
  33 5   H  1S          0.07916   0.11558   0.00026   0.00427  -0.01342
  34        2S          0.10842   0.17308   0.00237   0.00645  -0.04083
  35        3S          0.04139   0.07812   0.00145   0.01480  -0.81044
  36 6   H  1S          0.07763  -0.11490  -0.00005   0.00412  -0.01174
  37        2S          0.10598  -0.17148   0.00177   0.00602  -0.03652
  38        3S          0.04033  -0.07737   0.00112   0.01399  -0.78124
                          11        12        13        14        15
                           V         V         V         V         V
     Eigenvalues --     0.17006   0.17583   0.24148   0.37012   0.39096
   1 1   C  1S          0.00002   0.04112  -0.00011  -0.01968  -0.00333
   2        2S          0.00002   0.06687  -0.00018  -0.03203  -0.00894
   3        2PX        -0.10051   0.01995   0.09713   0.04640  -0.00738
   4        2PY         0.05827   0.03558  -0.05583   0.08081  -0.01081
   5        2PZ         0.00010   0.00560  -0.00007   0.00362  -0.00308
   6        3S          0.00017  -0.14561   0.00015   0.03713   0.07609
   7        3PX        -0.14008   0.01316   0.10814   0.10046   0.03808
   8        3PY         0.08107   0.02374  -0.06131   0.17497   0.07133
   9        3PZ         0.00011   0.00772  -0.00013   0.00490  -0.00929
  10        4S         -0.01171  -1.36819   0.01670   3.10721  -0.33820
  11        4PX        -0.56768   0.09345   1.15682   1.21592  -1.07977
  12        4PY         0.33333   0.17270  -0.66604   2.12286  -1.87230
  13        4PZ         0.00083   0.03844  -0.00054   0.03134  -0.02780
  14 2   H  1S          0.02474   0.02272   0.00840   0.01467  -0.04786
  15        2S          0.05221   0.01261  -0.04844   0.09837  -0.79457
  16        3S          1.09379   0.96839  -1.56658   0.48793  -0.14690
  17 3   H  1S         -0.02592   0.02253  -0.00727   0.01426  -0.05176
  18        2S         -0.05397   0.01070   0.05055   0.09407  -0.82825
  19        3S         -1.07974   0.94361   1.54785   0.47560  -0.10805
  20 4   C  1S          0.00111  -0.04498   0.00007   0.01160  -0.01550
  21        2S          0.00179  -0.07319   0.00012   0.01645  -0.02768
  22        2PX        -0.09326   0.01824  -0.09757   0.04095  -0.02555
  23        2PY         0.05224   0.03644   0.05610   0.07176  -0.04330
  24        2PZ        -0.00002  -0.00601  -0.00012  -0.00484   0.00042
  25        3S         -0.00386   0.16094   0.00009   0.02578   0.06725
  26        3PX        -0.12929   0.00842  -0.10155   0.06034  -0.10076
  27        3PY         0.07336   0.02155   0.05908   0.10622  -0.17139
  28        3PZ        -0.00002  -0.00816  -0.00023  -0.00943  -0.00306
  29        4S         -0.04535   1.52226  -0.01546  -2.49981   2.21600
  30        4PX        -0.59298   0.09893  -1.20431   1.53157  -0.08998
  31        4PY         0.32908   0.19650   0.69405   2.64875  -0.12849
  32        4PZ        -0.00020  -0.04136  -0.00058  -0.05284  -0.00587
  33 5   H  1S         -0.02301  -0.02175   0.01615  -0.05349  -0.03483
  34        2S         -0.06689  -0.00692  -0.03922  -0.57628  -0.61915
  35        3S         -1.07394  -1.07528  -1.62180  -0.39846   0.26024
  36 6   H  1S          0.02312  -0.02101  -0.01722  -0.05214  -0.03165
  37        2S          0.06621  -0.00678   0.03682  -0.56772  -0.58529
  38        3S          1.13444  -1.04228   1.63955  -0.42669   0.24521
                          16        17        18        19        20
                           V         V         V         V         V
     Eigenvalues --     0.40771   0.47467   0.49623   0.49663   0.59071
   1 1   C  1S         -0.00013  -0.00566   0.04130   0.02908   0.00092
   2        2S         -0.00009  -0.00193   0.07207   0.05104   0.00170
   3        2PX        -0.03066  -0.05124  -0.02749  -0.01797  -0.00210
   4        2PY         0.01617  -0.08860  -0.05015  -0.03248  -0.00409
   5        2PZ         0.00009  -0.00022   0.08460  -0.12852   0.19075
   6        3S         -0.00267  -0.27690  -0.19002  -0.14508  -0.00335
   7        3PX        -0.11592  -0.23658  -0.06111  -0.04128  -0.00698
   8        3PY         0.05878  -0.41285  -0.11039  -0.07348  -0.01381
   9        3PZ         0.00025  -0.00143   0.34834  -0.53179   0.67895
  10        4S         -0.00994   1.05342  -2.59185  -1.72650  -0.06909
  11        4PX        -0.52830   0.43588  -0.52870  -0.34316  -0.02257
  12        4PY         0.36323   0.72661  -0.90277  -0.58884  -0.03817
  13        4PZ         0.00174  -0.02700  -0.32803   0.61528  -1.22894
  14 2   H  1S          0.08308  -0.06395   0.04938   0.03245   0.00179
  15        2S          0.88058  -0.68907   0.63347   0.42283   0.01091
  16        3S         -0.35598   0.28926  -0.43498  -0.27673  -0.02369
  17 3   H  1S         -0.08295  -0.06256   0.04992   0.03285   0.00185
  18        2S         -0.86023  -0.66798   0.63497   0.42504   0.01182
  19        3S          0.38103   0.30070  -0.45046  -0.28820  -0.02501
  20 4   C  1S          0.00040   0.01526  -0.03859  -0.02410  -0.00074
  21        2S          0.00079   0.03359  -0.06440  -0.03983  -0.00132
  22        2PX        -0.01948   0.06262  -0.00992  -0.00712  -0.00241
  23        2PY         0.01394   0.10811  -0.01437  -0.01084  -0.00429
  24        2PZ        -0.00011  -0.00000   0.08519  -0.12622  -0.19126
  25        3S         -0.00390  -0.34154   0.06164   0.02312  -0.00033
  26        3PX        -0.09991   0.25020   0.03255   0.02137  -0.00754
  27        3PY         0.06731   0.43089   0.06197   0.03944  -0.01390
  28        3PZ        -0.00017  -0.00235   0.35273  -0.52325  -0.68309
  29        4S         -0.05596  -0.11978   2.76655   1.83083   0.07782
  30        4PX        -0.57487  -0.15950  -0.67026  -0.44983  -0.02125
  31        4PY         0.31085  -0.30315  -1.17045  -0.78281  -0.03391
  32        4PZ        -0.00051   0.00037  -0.43865   0.53287   1.23384
  33 5   H  1S         -0.07482  -0.02810  -0.06347  -0.04275  -0.00189
  34        2S         -0.78200  -0.28178  -0.80579  -0.53557  -0.01722
  35        3S          0.19162   0.00882   0.48779   0.33675   0.02400
  36 6   H  1S          0.07623  -0.03005  -0.06235  -0.04206  -0.00184
  37        2S          0.81342  -0.30676  -0.79577  -0.52862  -0.01633
  38        3S         -0.18885   0.00841   0.47033   0.32443   0.02456
                          21        22        23        24        25
                           V         V         V         V         V
     Eigenvalues --     0.67237   0.70592   0.77335   0.78237   0.85113
   1 1   C  1S         -0.00061   0.00001   0.04599   0.07654  -0.00037
   2        2S         -0.00126   0.00008   0.09883   0.16256  -0.00072
   3        2PX        -0.16405   0.17485   0.11304   0.01356  -0.00918
   4        2PY         0.09350  -0.09748   0.20262   0.02512   0.00995
   5        2PZ         0.00017  -0.00012   0.00446   0.00213   0.00002
   6        3S          0.00997  -0.00515  -0.92382  -1.22304   0.00396
   7        3PX        -0.73014   0.61029   0.45287  -0.02078   0.15107
   8        3PY         0.41857  -0.33907   0.81461  -0.02997  -0.06666
   9        3PZ         0.00069  -0.00056   0.01570   0.00756   0.00021
  10        4S         -0.01741   0.04025   1.73057   1.84363  -0.06033
  11        4PX         1.31303  -1.06432  -0.66610  -0.02931  -4.28462
  12        4PY        -0.75163   0.60040  -1.31565  -0.01784   2.43353
  13        4PZ        -0.00143  -0.00024  -0.05371  -0.01124   0.00182
  14 2   H  1S          0.03028  -0.04930   0.02588   0.02067   0.02671
  15        2S          0.21052  -0.42119   0.06767   0.09970   1.55348
  16        3S         -1.19731   1.03575  -1.13195  -0.46971   1.13040
  17 3   H  1S         -0.03059   0.04955   0.02519   0.02069  -0.02626
  18        2S         -0.20147   0.40147   0.08598   0.07879  -1.53291
  19        3S          1.20172  -1.05076  -1.05700  -0.46382  -1.12990
  20 4   C  1S         -0.00062  -0.00009   0.00041   0.08887   0.00018
  21        2S         -0.00125  -0.00024  -0.00044   0.18931   0.00029
  22        2PX        -0.12238  -0.20532   0.09159  -0.07438   0.01366
  23        2PY         0.07073   0.12148   0.15424  -0.12508  -0.00327
  24        2PZ        -0.00020  -0.00013  -0.00315   0.00492  -0.00019
  25        3S          0.00855   0.00629   0.16728  -1.51050   0.00012
  26        3PX        -0.58661  -0.76435   0.40600  -0.23780  -0.11216
  27        3PY         0.33729   0.45207   0.68363  -0.39361   0.08304
  28        3PZ        -0.00074  -0.00054  -0.01149   0.01725  -0.00078
  29        4S         -0.00697  -0.04101  -0.56996   2.28677   0.06236
  30        4PX         1.07747   1.27451  -0.63579   0.47000   4.55478
  31        4PY        -0.62453  -0.74363  -0.94994   0.74332  -2.64799
  32        4PZ         0.00182   0.00183   0.04341  -0.04080   0.00216
  33 5   H  1S         -0.02126  -0.05549  -0.01159   0.03009   0.03199
  34        2S         -0.11644  -0.52193  -0.02646   0.15868   1.71576
  35        3S          1.01549   1.30472   0.64010  -0.99950   1.25554
  36 6   H  1S          0.02079   0.05527  -0.01205   0.03028  -0.03310
  37        2S          0.11934   0.54066  -0.00011   0.15893  -1.73927
  38        3S         -1.00994  -1.28898   0.70326  -1.04531  -1.25771
                          26        27        28        29        30
                           V         V         V         V         V
     Eigenvalues --     0.93888   2.22680   2.30015   2.33519   2.41896
   1 1   C  1S         -0.09431  -0.01133   0.01440  -0.00031   0.00026
   2        2S         -0.19552  -0.00258   0.01387  -0.00055   0.00035
   3        2PX         0.08583  -0.12616   0.11075   0.33199  -0.40525
   4        2PY         0.14818  -0.21661   0.18748  -0.19144   0.23273
   5        2PZ        -0.00031  -0.01315   0.01910  -0.00035   0.00044
   6        3S          1.52410  -0.15806   0.03629   0.00048   0.00139
   7        3PX         0.19679   0.15474  -0.18286  -0.40885   0.56344
   8        3PY         0.34462   0.26012  -0.30344   0.23351  -0.32284
   9        3PZ         0.00241   0.01366  -0.02312   0.00039  -0.00051
  10        4S         -5.70345  -0.16495   0.92249  -0.00701   0.01661
  11        4PX        -1.06892   0.01367   0.18073   0.01557   0.98948
  12        4PY        -1.93092   0.03719   0.30665  -0.00560  -0.57334
  13        4PZ         0.02069   0.00473  -0.00844   0.00026  -0.00069
  14 2   H  1S         -0.01648  -0.76224   0.72253  -0.74496   0.63631
  15        2S          0.27832   1.10135  -1.09568   1.12697  -1.43954
  16        3S          0.12423  -0.33131   0.41032  -0.51138   0.34115
  17 3   H  1S         -0.01632  -0.76203   0.73291   0.74120  -0.62711
  18        2S          0.30452   1.09893  -1.11231  -1.11881   1.41920
  19        3S          0.13496  -0.33911   0.42507   0.51366  -0.34458
  20 4   C  1S          0.09632  -0.01286  -0.01672  -0.00024  -0.00031
  21        2S          0.20006  -0.00432  -0.01812  -0.00049  -0.00038
  22        2PX         0.08408   0.08430   0.10942   0.31590   0.43383
  23        2PY         0.14662   0.15295   0.19558  -0.18039  -0.24933
  24        2PZ        -0.00011  -0.01395  -0.01927   0.00047   0.00016
  25        3S         -1.56113  -0.16609  -0.03513   0.00078  -0.00219
  26        3PX         0.20070  -0.08027  -0.16828  -0.35818  -0.59239
  27        3PY         0.34549  -0.15300  -0.30736   0.20542   0.34198
  28        3PZ        -0.00359   0.01340   0.02333  -0.00062  -0.00024
  29        4S          5.74250  -0.17796  -0.94168  -0.00407  -0.01955
  30        4PX        -1.15909  -0.04789   0.18329  -0.02514  -1.11310
  31        4PY        -1.92666  -0.07115   0.32284   0.01222   0.63530
  32        4PZ        -0.01472   0.00532   0.00873   0.00004   0.00008
  33 5   H  1S          0.01319  -0.73627  -0.78084   0.65717   0.70027
  34        2S         -0.27935   1.05196   1.17962  -0.99867  -1.59253
  35        3S         -0.16505  -0.29656  -0.44150   0.41257   0.33091
  36 6   H  1S          0.01358  -0.73286  -0.76979  -0.65992  -0.71554
  37        2S         -0.24911   1.04712   1.16023   1.00416   1.62204
  38        3S         -0.14970  -0.28501  -0.42694  -0.41089  -0.32832
                          31        32        33        34        35
                           V         V         V         V         V
     Eigenvalues --     2.67026   2.82024   2.87152   2.95613   3.12690
   1 1   C  1S          0.00055  -0.00288  -0.01353  -0.00028   0.00916
   2        2S          0.00058  -0.00851  -0.04534  -0.00058   0.02549
   3        2PX         0.00619  -0.07447  -0.42381  -0.79113  -0.50518
   4        2PY         0.01137  -0.13351  -0.73940   0.45392  -0.87763
   5        2PZ        -0.92684   0.92338  -0.16204   0.00151  -0.01022
   6        3S         -0.00345   0.07009   0.39375   0.00382  -0.20340
   7        3PX        -0.00633   0.13455   0.77847   0.95549   0.53665
   8        3PY        -0.01154   0.23903   1.36034  -0.54854   0.93564
   9        3PZ         0.94534  -1.12426   0.20152  -0.00204   0.01358
  10        4S          0.01709  -0.15700  -0.84269  -0.01010   0.38119
  11        4PX         0.00160  -0.11452  -0.70229  -0.71631  -0.31735
  12        4PY         0.00124  -0.20193  -1.22211   0.41084  -0.54983
  13        4PZ        -0.34108   0.60621  -0.12431   0.00160  -0.01069
  14 2   H  1S          0.01180   0.02745   0.26047  -0.42370   0.24804
  15        2S         -0.01440  -0.01953  -0.22175   0.43563  -0.18719
  16        3S         -0.00206  -0.04887  -0.30281   0.27418  -0.11583
  17 3   H  1S          0.01167   0.02719   0.26290   0.42624   0.24708
  18        2S         -0.01391  -0.01997  -0.22911  -0.43953  -0.18908
  19        3S         -0.00113  -0.04648  -0.29306  -0.26877  -0.11360
  20 4   C  1S          0.00053   0.00289   0.01287  -0.00013   0.01143
  21        2S          0.00049   0.00807   0.04135  -0.00028   0.03148
  22        2PX        -0.00514  -0.08436  -0.48082  -0.73888   0.45567
  23        2PY        -0.01034  -0.15017  -0.83818   0.42309   0.79066
  24        2PZ        -0.92196  -0.92821   0.16373  -0.00176  -0.00945
  25        3S         -0.00242  -0.06399  -0.35112   0.00171  -0.24620
  26        3PX         0.00353   0.14506   0.83940   0.90984  -0.44520
  27        3PY         0.00783   0.25560   1.45699  -0.51850  -0.76965
  28        3PZ         0.93895   1.12848  -0.20564   0.00217   0.01179
  29        4S          0.01360   0.15240   0.80325  -0.00283   0.46409
  30        4PX         0.00118  -0.11721  -0.71461  -0.71223   0.22829
  31        4PY         0.00283  -0.20644  -1.24524   0.40446   0.38729
  32        4PZ        -0.33774  -0.60751   0.12825  -0.00157  -0.00705
  33 5   H  1S          0.01173  -0.01969  -0.22952   0.38535   0.21303
  34        2S         -0.01317   0.00914   0.17405  -0.39238  -0.15533
  35        3S         -0.00433   0.05246   0.32330  -0.32074  -0.06596
  36 6   H  1S          0.01159  -0.01854  -0.22582  -0.38370   0.21484
  37        2S         -0.01243   0.00726   0.16485   0.38854  -0.15795
  38        3S         -0.00406   0.05244   0.32956   0.32741  -0.07030
                          36        37        38
                           V         V         V
     Eigenvalues --     3.34694  23.36801  23.69976
   1 1   C  1S         -0.00025  -1.45508   1.41092
   2        2S         -0.00033   1.55268  -1.52529
   3        2PX        -0.71690  -0.00687  -0.01268
   4        2PY         0.41418  -0.01234  -0.02166
   5        2PZ         0.00051  -0.00056   0.00025
   6        3S          0.00030  -0.30867   0.38349
   7        3PX         1.03083   0.02229   0.05303
   8        3PY        -0.59826   0.03984   0.09127
   9        3PZ        -0.00076   0.00158  -0.00074
  10        4S         -0.00628   0.29221  -0.73876
  11        4PX        -1.84460  -0.02191  -0.12506
  12        4PY         1.07070  -0.03971  -0.21642
  13        4PZ         0.00112  -0.00262   0.00312
  14 2   H  1S         -0.50569   0.01583  -0.00760
  15        2S          0.78578   0.00649   0.01540
  16        3S          0.47573  -0.08462   0.04105
  17 3   H  1S          0.50065   0.01470  -0.00664
  18        2S         -0.77955   0.00721   0.01493
  19        3S         -0.46606  -0.08319   0.04035
  20 4   C  1S          0.00022  -1.40662  -1.45944
  21        2S          0.00033   1.50077   1.57754
  22        2PX         0.77130   0.00763  -0.01191
  23        2PY        -0.44291   0.01289  -0.02098
  24        2PZ         0.00038  -0.00064  -0.00024
  25        3S         -0.00026  -0.29761  -0.39572
  26        3PX        -1.12035  -0.02518   0.05147
  27        3PY         0.64031  -0.04267   0.09004
  28        3PZ        -0.00045   0.00184   0.00059
  29        4S          0.00830   0.27586   0.75218
  30        4PX         2.01230   0.02765  -0.12541
  31        4PY        -1.14813   0.04684  -0.21790
  32        4PZ         0.00057  -0.00292  -0.00262
  33 5   H  1S         -0.57526   0.01726   0.01156
  34        2S          0.89265   0.00558  -0.01741
  35        3S          0.53004  -0.08668  -0.04423
  36 6   H  1S          0.57881   0.01822   0.01239
  37        2S         -0.89830   0.00512  -0.01765
  38        3S         -0.54155  -0.08792  -0.04475
     Density Matrix:
                           1         2         3         4         5
   1 1   C  1S          0.65947
   2        2S          0.56160   0.49214
   3        2PX        -0.00082  -0.00113   0.08402
   4        2PY        -0.00121  -0.00162   0.00280   0.08787
   5        2PZ         0.00010   0.00015  -0.00015  -0.00023   0.06357
   6        3S         -0.08938  -0.15448   0.00384   0.00572  -0.00022
   7        3PX         0.00061   0.00092   0.12997   0.00112  -0.00009
   8        3PY         0.00125   0.00191   0.00115   0.13179  -0.00012
   9        3PZ         0.00019   0.00031  -0.00023  -0.00037   0.10187
  10        4S         -0.07997  -0.11552  -0.01279  -0.02157   0.00078
  11        4PX         0.00007   0.00120   0.07221  -0.00396  -0.00049
  12        4PY         0.00001   0.00187  -0.00394   0.06746  -0.00087
  13        4PZ        -0.00009  -0.00023  -0.00079  -0.00146   0.09653
  14 2   H  1S         -0.02088  -0.03322   0.03494  -0.06441  -0.00129
  15        2S         -0.02264  -0.03616   0.05001  -0.08848  -0.00094
  16        3S          0.00069  -0.00052   0.02166  -0.03304  -0.00003
  17 3   H  1S         -0.02062  -0.03282  -0.07267  -0.00198  -0.00122
  18        2S         -0.02255  -0.03604  -0.10147  -0.00095  -0.00091
  19        3S          0.00063  -0.00059  -0.03968   0.00227  -0.00005
  20 4   C  1S          0.00568   0.00911  -0.01006  -0.01753  -0.00046
  21        2S          0.00914   0.01421  -0.01611  -0.02808  -0.00075
  22        2PX         0.01053   0.01687  -0.01358  -0.03148   0.00051
  23        2PY         0.01822   0.02919  -0.03139  -0.05010   0.00095
  24        2PZ        -0.00051  -0.00083  -0.00030  -0.00058   0.06360
  25        3S         -0.02457  -0.03713   0.04519   0.07880   0.00225
  26        3PX         0.01649   0.02565  -0.01953  -0.04548   0.00071
  27        3PY         0.02856   0.04443  -0.04535  -0.07244   0.00132
  28        3PZ        -0.00085  -0.00137  -0.00055  -0.00106   0.10251
  29        4S          0.00482   0.00351   0.01863   0.03241   0.00253
  30        4PX         0.00331   0.00673  -0.01348  -0.02104   0.00092
  31        4PY         0.00587   0.01187  -0.02096  -0.03797   0.00167
  32        4PZ        -0.00070  -0.00113  -0.00095  -0.00179   0.09644
  33 5   H  1S          0.00418   0.00692  -0.00139  -0.01159  -0.00057
  34        2S          0.00653   0.01092   0.00328  -0.02448  -0.00009
  35        3S          0.00354   0.00522   0.00348  -0.01773   0.00011
  36 6   H  1S          0.00423   0.00700  -0.00931  -0.00703  -0.00056
  37        2S          0.00659   0.01101  -0.02273  -0.00940  -0.00011
  38        3S          0.00357   0.00525  -0.01695  -0.00582   0.00008
                           6         7         8         9        10
   6        3S          0.45467
   7        3PX        -0.00041   0.20125
   8        3PY        -0.00167  -0.00290   0.19801
   9        3PZ        -0.00063  -0.00013  -0.00018   0.16323
  10        4S          0.27804  -0.02282  -0.03818   0.00107   0.18268
  11        4PX        -0.00541   0.11208  -0.00839  -0.00078  -0.01388
  12        4PY        -0.00877  -0.00842   0.10170  -0.00139  -0.02238
  13        4PZ         0.00108  -0.00099  -0.00186   0.15468   0.00239
  14 2   H  1S          0.08887   0.05529  -0.10003  -0.00211   0.06688
  15        2S          0.09688   0.07950  -0.13697  -0.00155   0.07589
  16        3S          0.00562   0.03478  -0.05060  -0.00005   0.00856
  17 3   H  1S          0.08781  -0.11375  -0.00233  -0.00201   0.06717
  18        2S          0.09651  -0.15863   0.00011  -0.00152   0.07715
  19        3S          0.00571  -0.06175   0.00475  -0.00009   0.00927
  20 4   C  1S         -0.02435  -0.01559  -0.02714  -0.00078   0.00484
  21        2S         -0.03692  -0.02419  -0.04212  -0.00126   0.00334
  22        2PX        -0.04743  -0.02001  -0.04545   0.00086  -0.02113
  23        2PY        -0.08210  -0.04536  -0.07262   0.00160  -0.03677
  24        2PZ         0.00248  -0.00034  -0.00069   0.10191   0.00277
  25        3S          0.09396   0.06559   0.11421   0.00375   0.00268
  26        3PX        -0.06978  -0.02884  -0.06560   0.00120  -0.03166
  27        3PY        -0.12091  -0.06544  -0.10499   0.00224  -0.05521
  28        3PZ         0.00406  -0.00067  -0.00131   0.16426   0.00456
  29        4S          0.00145   0.02752   0.04776   0.00418  -0.02924
  30        4PX        -0.02360  -0.02044  -0.03036   0.00150  -0.00882
  31        4PY        -0.04148  -0.03024  -0.05564   0.00274  -0.01599
  32        4PZ         0.00334  -0.00126  -0.00239   0.15453   0.00407
  33 5   H  1S         -0.02092  -0.00092  -0.01736  -0.00084  -0.01759
  34        2S         -0.03296   0.00715  -0.03675  -0.00005  -0.02366
  35        3S         -0.01352   0.00652  -0.02666   0.00020  -0.00570
  36 6   H  1S         -0.02113  -0.01460  -0.00959  -0.00083  -0.01744
  37        2S         -0.03320  -0.03537  -0.01232  -0.00010  -0.02323
  38        3S         -0.01360  -0.02621  -0.00771   0.00015  -0.00543
                          11        12        13        14        15
  11        4PX         0.06310
  12        4PY        -0.00777   0.05337
  13        4PZ        -0.00120  -0.00222   0.14660
  14 2   H  1S          0.03352  -0.05499  -0.00106   0.08285
  15        2S          0.04867  -0.07527  -0.00029   0.11052   0.14978
  16        3S          0.02153  -0.02783   0.00027   0.03707   0.05269
  17 3   H  1S         -0.06459   0.00139  -0.00107  -0.01304  -0.02568
  18        2S         -0.09030   0.00430  -0.00039  -0.02578  -0.04578
  19        3S         -0.03533   0.00461   0.00017  -0.01919  -0.02930
  20 4   C  1S         -0.00323  -0.00552  -0.00072   0.00412   0.00626
  21        2S         -0.00657  -0.01130  -0.00116   0.00679   0.01043
  22        2PX        -0.01326  -0.02179   0.00119   0.00116  -0.00414
  23        2PY        -0.02175  -0.03849   0.00221   0.01246   0.02544
  24        2PZ        -0.00058  -0.00108   0.09658  -0.00055  -0.00009
  25        3S          0.02301   0.03967   0.00339  -0.02035  -0.03132
  26        3PX        -0.01957  -0.03141   0.00168   0.00063  -0.00825
  27        3PY        -0.03133  -0.05609   0.00313   0.01812   0.03758
  28        3PZ        -0.00098  -0.00184   0.15567  -0.00081  -0.00005
  29        4S          0.00782   0.01314   0.00395  -0.01558  -0.02048
  30        4PX        -0.01364  -0.01444   0.00175  -0.00081  -0.00693
  31        4PY        -0.01442  -0.03043   0.00320   0.01529   0.02669
  32        4PZ        -0.00130  -0.00243   0.14647  -0.00043   0.00043
  33 5   H  1S          0.00048  -0.01481  -0.00046   0.01088   0.02320
  34        2S          0.00631  -0.02624   0.00042   0.02268   0.04272
  35        3S          0.00564  -0.01548   0.00040   0.01579   0.02623
  36 6   H  1S         -0.01301  -0.00714  -0.00050  -0.00912  -0.01849
  37        2S         -0.02577  -0.00784   0.00030  -0.01781  -0.03258
  38        3S         -0.01616  -0.00291   0.00031  -0.00901  -0.01574
                          16        17        18        19        20
  16        3S          0.02124
  17 3   H  1S         -0.01902   0.08206
  18        2S         -0.02919   0.11024   0.15039
  19        3S         -0.01393   0.03730   0.05330   0.02159
  20 4   C  1S          0.00314   0.00408   0.00620   0.00312   0.65942
  21        2S          0.00462   0.00672   0.01034   0.00459   0.56163
  22        2PX        -0.00426   0.01021   0.02413   0.01768   0.00020
  23        2PY         0.01788   0.00724   0.00916   0.00531   0.00055
  24        2PZ         0.00006  -0.00055  -0.00014   0.00001   0.00011
  25        3S         -0.01196  -0.02014  -0.03107  -0.01190  -0.08921
  26        3PX        -0.00751   0.01528   0.03657   0.02698  -0.00097
  27        3PY         0.02680   0.00951   0.01151   0.00689  -0.00151
  28        3PZ         0.00013  -0.00081  -0.00012   0.00005   0.00020
  29        4S         -0.00408  -0.01563  -0.02078  -0.00432  -0.07872
  30        4PX        -0.00607   0.01367   0.02663   0.01641  -0.00025
  31        4PY         0.01543   0.00678   0.00714   0.00241  -0.00051
  32        4PZ         0.00035  -0.00047   0.00030   0.00025  -0.00014
  33 5   H  1S          0.01634  -0.00910  -0.01855  -0.00973  -0.02167
  34        2S          0.02664  -0.01782  -0.03278  -0.01639  -0.02331
  35        3S          0.01375  -0.00904  -0.01588  -0.00815   0.00076
  36 6   H  1S         -0.00967   0.01089   0.02326   0.01643  -0.02192
  37        2S         -0.01622   0.02259   0.04268   0.02669  -0.02342
  38        3S         -0.00804   0.01565   0.02612   0.01374   0.00080
                          21        22        23        24        25
  21        2S          0.49222
  22        2PX         0.00019   0.08646
  23        2PY         0.00064   0.00213   0.08846
  24        2PZ         0.00017   0.00008   0.00015   0.06367
  25        3S         -0.15434  -0.00126  -0.00310  -0.00029   0.45423
  26        3PX        -0.00148   0.13275  -0.00000   0.00005   0.00216
  27        3PY        -0.00231  -0.00001   0.13237   0.00009   0.00295
  28        3PZ         0.00033   0.00018   0.00032   0.10262  -0.00068
  29        4S         -0.11321   0.01377   0.02445   0.00055   0.27055
  30        4PX        -0.00147   0.07000  -0.00341   0.00063   0.00626
  31        4PY        -0.00271  -0.00342   0.06626   0.00113   0.01128
  32        4PZ        -0.00031   0.00087   0.00160   0.09653   0.00131
  33 5   H  1S         -0.03443  -0.03662   0.06483  -0.00149   0.09202
  34        2S         -0.03722  -0.04952   0.08786  -0.00119   0.09972
  35        3S         -0.00049  -0.01999   0.03246  -0.00008   0.00580
  36 6   H  1S         -0.03480   0.07493   0.00101  -0.00146   0.09304
  37        2S         -0.03737   0.10089   0.00143  -0.00119   0.10015
  38        3S         -0.00045   0.03788  -0.00095  -0.00010   0.00576
                          26        27        28        29        30
  26        3PX         0.20397
  27        3PY        -0.00485   0.19833
  28        3PZ         0.00015   0.00025   0.16541
  29        4S          0.02271   0.04076   0.00077   0.17394
  30        4PX         0.10773  -0.00764   0.00106   0.01333   0.05757
  31        4PY        -0.00764   0.09949   0.00187   0.02453  -0.00615
  32        4PZ         0.00119   0.00218   0.15559   0.00233   0.00154
  33 5   H  1S         -0.05787   0.10001  -0.00242   0.06828  -0.03245
  34        2S         -0.07852   0.13515  -0.00193   0.07755  -0.04474
  35        3S         -0.03192   0.04949  -0.00012   0.00943  -0.01863
  36 6   H  1S          0.11593   0.00027  -0.00235   0.06807   0.06262
  37        2S          0.15591   0.00003  -0.00190   0.07657   0.08442
  38        3S          0.05833  -0.00279  -0.00014   0.00887   0.03173
                          31        32        33        34        35
  31        4PY         0.05108
  32        4PZ         0.00278   0.14638
  33 5   H  1S          0.05381  -0.00121   0.08457
  34        2S          0.07249  -0.00047   0.11024   0.14581
  35        3S          0.02635   0.00024   0.03566   0.04941   0.01932
  36 6   H  1S         -0.00106  -0.00120  -0.01365  -0.02445  -0.01757
  37        2S         -0.00237  -0.00053  -0.02439  -0.04063  -0.02546
  38        3S         -0.00298   0.00018  -0.01747  -0.02542  -0.01155
                          36        37        38
  36 6   H  1S          0.08527
  37        2S          0.11043   0.14517
  38        3S          0.03544   0.04885   0.01901
    Full Mulliken population analysis:
                           1         2         3         4         5
   1 1   C  1S          0.65947
   2        2S          0.49334   0.49214
   3        2PX         0.00000   0.00000   0.08402
   4        2PY         0.00000   0.00000   0.00000   0.08787
   5        2PZ         0.00000   0.00000   0.00000   0.00000   0.06357
   6        3S         -0.02942  -0.06470   0.00000   0.00000   0.00000
   7        3PX         0.00000   0.00000   0.08177   0.00000   0.00000
   8        3PY         0.00000   0.00000   0.00000   0.08291   0.00000
   9        3PZ         0.00000   0.00000   0.00000   0.00000   0.06409
  10        4S         -0.01230  -0.02162   0.00000   0.00000   0.00000
  11        4PX         0.00000   0.00000   0.01590   0.00000   0.00000
  12        4PY         0.00000   0.00000   0.00000   0.01486   0.00000
  13        4PZ         0.00000   0.00000   0.00000   0.00000   0.02126
  14 2   H  1S         -0.00025  -0.00037   0.00181   0.00617   0.00000
  15        2S         -0.00170  -0.00325   0.00419   0.01375   0.00000
  16        3S          0.00006  -0.00005   0.00068   0.00194   0.00000
  17 3   H  1S         -0.00024  -0.00034   0.00766   0.00001   0.00000
  18        2S         -0.00166  -0.00318   0.01776   0.00001   0.00000
  19        3S          0.00005  -0.00006   0.00264  -0.00000   0.00000
  20 4   C  1S          0.00000   0.00000  -0.00002  -0.00005   0.00000
  21        2S          0.00000  -0.00000  -0.00001  -0.00004   0.00000
  22        2PX        -0.00002  -0.00001   0.00011   0.00076   0.00000
  23        2PY        -0.00005  -0.00004   0.00076   0.00181   0.00000
  24        2PZ        -0.00000  -0.00000  -0.00000  -0.00000   0.00036
  25        3S         -0.00051  -0.00086   0.00224   0.00679  -0.00000
  26        3PX        -0.00053  -0.00096   0.00022   0.00530   0.00000
  27        3PY        -0.00158  -0.00290   0.00529   0.01061   0.00000
  28        3PZ        -0.00000  -0.00000  -0.00000  -0.00000   0.00572
  29        4S          0.00030   0.00026   0.00084   0.00253  -0.00000
  30        4PX        -0.00019  -0.00047  -0.00070   0.00146   0.00000
  31        4PY        -0.00059  -0.00145   0.00146   0.00108   0.00000
  32        4PZ        -0.00000  -0.00000  -0.00000  -0.00000   0.00888
  33 5   H  1S          0.00000   0.00000  -0.00000  -0.00000   0.00000
  34        2S          0.00002   0.00003   0.00000  -0.00039   0.00000
  35        3S          0.00009   0.00016   0.00001  -0.00076  -0.00000
  36 6   H  1S          0.00000   0.00000  -0.00000  -0.00000   0.00000
  37        2S          0.00002   0.00003  -0.00031  -0.00008   0.00000
  38        3S          0.00009   0.00016  -0.00061  -0.00014  -0.00000
                           6         7         8         9        10
   6        3S          0.45467
   7        3PX         0.00000   0.20125
   8        3PY         0.00000   0.00000   0.19801
   9        3PZ         0.00000   0.00000   0.00000   0.16323
  10        4S          0.21540   0.00000   0.00000   0.00000   0.18268
  11        4PX         0.00000   0.07324   0.00000   0.00000   0.00000
  12        4PY         0.00000   0.00000   0.06646   0.00000   0.00000
  13        4PZ         0.00000   0.00000   0.00000   0.10107   0.00000
  14 2   H  1S          0.01687   0.01022   0.03428   0.00002   0.01791
  15        2S          0.04154   0.01857   0.05929   0.00002   0.04417
  16        3S          0.00261   0.00383   0.01033   0.00000   0.00649
  17 3   H  1S          0.01634   0.04369   0.00003   0.00002   0.01785
  18        2S          0.04092   0.07764  -0.00000   0.00002   0.04464
  19        3S          0.00264   0.01434  -0.00003   0.00000   0.00701
  20 4   C  1S         -0.00051  -0.00050  -0.00150   0.00000   0.00030
  21        2S         -0.00086  -0.00091  -0.00275   0.00000   0.00025
  22        2PX         0.00235   0.00023   0.00530   0.00000   0.00095
  23        2PY         0.00707   0.00529   0.01064   0.00000   0.00287
  24        2PZ         0.00000  -0.00000  -0.00000   0.00569   0.00000
  25        3S          0.01925   0.01194   0.03610  -0.00000   0.00100
  26        3PX         0.01271  -0.00124   0.01843   0.00000   0.00484
  27        3PY         0.03821   0.01839   0.02970   0.00000   0.01466
  28        3PZ         0.00000  -0.00000  -0.00000   0.03365   0.00000
  29        4S          0.00054   0.00421   0.01269  -0.00000  -0.01814
  30        4PX         0.00658  -0.00407   0.00605   0.00000   0.00267
  31        4PY         0.02008   0.00602   0.00178   0.00000   0.00840
  32        4PZ         0.00000  -0.00000  -0.00000   0.04847   0.00000
  33 5   H  1S         -0.00008  -0.00000  -0.00025   0.00000  -0.00107
  34        2S         -0.00154   0.00004  -0.00379   0.00000  -0.00438
  35        3S         -0.00239   0.00007  -0.00453  -0.00000  -0.00218
  36 6   H  1S         -0.00008  -0.00018  -0.00008   0.00000  -0.00107
  37        2S         -0.00157  -0.00307  -0.00071   0.00000  -0.00432
  38        3S         -0.00242  -0.00373  -0.00073  -0.00000  -0.00208
                          11        12        13        14        15
  11        4PX         0.06310
  12        4PY         0.00000   0.05337
  13        4PZ         0.00000   0.00000   0.14660
  14 2   H  1S          0.00596   0.01813   0.00001   0.08285
  15        2S          0.01453   0.04166   0.00001   0.07807   0.14978
  16        3S          0.00502   0.01203  -0.00000   0.01385   0.04157
  17 3   H  1S          0.02417  -0.00002   0.00001  -0.00001  -0.00077
  18        2S          0.05682  -0.00009   0.00001  -0.00078  -0.00624
  19        3S          0.01740  -0.00007  -0.00000  -0.00225  -0.00889
  20 4   C  1S         -0.00019  -0.00055   0.00000   0.00000   0.00001
  21        2S         -0.00046  -0.00138   0.00000   0.00000   0.00002
  22        2PX        -0.00069   0.00151   0.00000  -0.00000   0.00000
  23        2PY         0.00151   0.00110   0.00000  -0.00000  -0.00034
  24        2PZ        -0.00000  -0.00000   0.00889   0.00000   0.00000
  25        3S          0.00642   0.01920  -0.00000  -0.00006  -0.00128
  26        3PX        -0.00389   0.00626   0.00000  -0.00000   0.00006
  27        3PY         0.00624   0.00179   0.00000  -0.00021  -0.00346
  28        3PZ        -0.00000  -0.00000   0.04883   0.00000   0.00000
  29        4S          0.00237   0.00690  -0.00000  -0.00087  -0.00354
  30        4PX        -0.00645   0.00370   0.00000   0.00001   0.00019
  31        4PY         0.00369  -0.00534   0.00000  -0.00233  -0.00978
  32        4PZ        -0.00000  -0.00000   0.09087   0.00000  -0.00000
  33 5   H  1S          0.00000  -0.00242   0.00000   0.00000   0.00000
  34        2S          0.00014  -0.01009  -0.00000   0.00000   0.00018
  35        3S          0.00016  -0.00736  -0.00000   0.00025   0.00151
  36 6   H  1S         -0.00178  -0.00065   0.00000  -0.00000  -0.00006
  37        2S         -0.00830  -0.00168  -0.00000  -0.00005  -0.00103
  38        3S         -0.00642  -0.00077  -0.00000  -0.00045  -0.00237
                          16        17        18        19        20
  16        3S          0.02124
  17 3   H  1S         -0.00223   0.08206
  18        2S         -0.00886   0.07787   0.15039
  19        3S         -0.00743   0.01394   0.04205   0.02159
  20 4   C  1S          0.00008   0.00000   0.00001   0.00007   0.65942
  21        2S          0.00013   0.00000   0.00002   0.00013   0.49336
  22        2PX         0.00001  -0.00000  -0.00026  -0.00059   0.00000
  23        2PY        -0.00073  -0.00000  -0.00007  -0.00012   0.00000
  24        2PZ        -0.00000   0.00000   0.00000  -0.00000   0.00000
  25        3S         -0.00200  -0.00006  -0.00124  -0.00197  -0.02937
  26        3PX         0.00009  -0.00014  -0.00274  -0.00364   0.00000
  27        3PY        -0.00439  -0.00006  -0.00059  -0.00063   0.00000
  28        3PZ        -0.00000   0.00000   0.00000  -0.00000   0.00000
  29        4S         -0.00150  -0.00086  -0.00355  -0.00158  -0.01210
  30        4PX         0.00022  -0.00171  -0.00802  -0.00631   0.00000
  31        4PY        -0.00719  -0.00058  -0.00147  -0.00063   0.00000
  32        4PZ        -0.00000   0.00000  -0.00000  -0.00000   0.00000
  33 5   H  1S          0.00025  -0.00000  -0.00005  -0.00048  -0.00029
  34        2S          0.00153  -0.00005  -0.00102  -0.00245  -0.00182
  35        3S          0.00245  -0.00045  -0.00237  -0.00272   0.00006
  36 6   H  1S         -0.00048   0.00000   0.00000   0.00025  -0.00031
  37        2S         -0.00244   0.00000   0.00018   0.00153  -0.00186
  38        3S         -0.00270   0.00024   0.00149   0.00245   0.00006
                          21        22        23        24        25
  21        2S          0.49222
  22        2PX         0.00000   0.08646
  23        2PY         0.00000   0.00000   0.08846
  24        2PZ         0.00000   0.00000   0.00000   0.06367
  25        3S         -0.06464   0.00000   0.00000   0.00000   0.45423
  26        3PX         0.00000   0.08351   0.00000   0.00000   0.00000
  27        3PY         0.00000   0.00000   0.08328   0.00000   0.00000
  28        3PZ         0.00000   0.00000   0.00000   0.06456   0.00000
  29        4S         -0.02119   0.00000   0.00000   0.00000   0.20959
  30        4PX         0.00000   0.01542   0.00000   0.00000   0.00000
  31        4PY         0.00000   0.00000   0.01459   0.00000   0.00000
  32        4PZ         0.00000   0.00000   0.00000   0.02126   0.00000
  33 5   H  1S         -0.00043   0.00224   0.00653   0.00001   0.01835
  34        2S         -0.00350   0.00463   0.01355   0.00001   0.04395
  35        3S         -0.00005   0.00069   0.00184   0.00000   0.00273
  36 6   H  1S         -0.00046   0.00906  -0.00000   0.00001   0.01886
  37        2S         -0.00356   0.01832  -0.00000   0.00001   0.04455
  38        3S         -0.00004   0.00251   0.00000   0.00000   0.00272
                          26        27        28        29        30
  26        3PX         0.20397
  27        3PY         0.00000   0.19833
  28        3PZ         0.00000   0.00000   0.16541
  29        4S          0.00000   0.00000   0.00000   0.17394
  30        4PX         0.07040   0.00000   0.00000   0.00000   0.05757
  31        4PY         0.00000   0.06501   0.00000   0.00000   0.00000
  32        4PZ         0.00000   0.00000   0.10167   0.00000   0.00000
  33 5   H  1S          0.01207   0.03440   0.00003   0.01862   0.00631
  34        2S          0.02023   0.05743   0.00003   0.04578   0.01455
  35        3S          0.00382   0.00976   0.00000   0.00722   0.00470
  36 6   H  1S          0.04713  -0.00000   0.00003   0.01868   0.02349
  37        2S          0.07774  -0.00000   0.00003   0.04542   0.05287
  38        3S          0.01343   0.00001   0.00000   0.00681   0.01539
                          31        32        33        34        35
  31        4PY         0.05108
  32        4PZ         0.00000   0.14638
  33 5   H  1S          0.01726   0.00001   0.08457
  34        2S          0.03887   0.00001   0.07787   0.14581
  35        3S          0.01097  -0.00000   0.01333   0.03898   0.01932
  36 6   H  1S          0.00001   0.00001  -0.00001  -0.00071  -0.00203
  37        2S          0.00003   0.00001  -0.00071  -0.00542  -0.00765
  38        3S          0.00003  -0.00000  -0.00202  -0.00763  -0.00612
                          36        37        38
  36 6   H  1S          0.08527
  37        2S          0.07801   0.14517
  38        3S          0.01324   0.03854   0.01901
     Gross orbital populations:
                           1
   1 1   C  1S          1.10439
   2        2S          0.88584
   3        2PX         0.22572
   4        2PY         0.23638
   5        2PZ         0.16390
   6        3S          0.79422
   7        3PX         0.55706
   8        3PY         0.55761
   9        3PZ         0.41629
  10        4S          0.50493
  11        4PX         0.26851
  12        4PY         0.21655
  13        4PZ         0.41754
  14 2   H  1S          0.27881
  15        2S          0.46644
  16        3S          0.08441
  17 3   H  1S          0.27639
  18        2S          0.46765
  19        3S          0.08623
  20 4   C  1S          1.10431
  21        2S          0.88586
  22        2PX         0.23249
  23        2PY         0.23792
  24        2PZ         0.16446
  25        3S          0.79592
  26        3PX         0.56708
  27        3PY         0.55929
  28        3PZ         0.41997
  29        4S          0.49337
  30        4PX         0.25367
  31        4PY         0.21100
  32        4PZ         0.41755
  33 5   H  1S          0.28405
  34        2S          0.46089
  35        3S          0.07949
  36 6   H  1S          0.28616
  37        2S          0.45968
  38        3S          0.07796
          Condensed to atoms (all electrons):
               1          2          3          4          5          6
     1  C    5.054498   0.386501   0.385998   0.602927  -0.040506  -0.040473
     2  H    0.386501   0.520853  -0.037455  -0.036844   0.006177  -0.009579
     3  H    0.385998  -0.037455   0.521766  -0.036589  -0.009591   0.006146
     4  C    0.602927  -0.036844  -0.036589   5.031863   0.390566   0.390977
     5  H   -0.040506   0.006177  -0.009591   0.390566   0.510061  -0.032291
     6  H   -0.040473  -0.009579   0.006146   0.390977  -0.032291   0.509028
 Mulliken charges:
               1
     1  C   -0.348945
     2  H    0.170346
     3  H    0.169725
     4  C   -0.342900
     5  H    0.175583
     6  H    0.176191
 Sum of Mulliken charges =   0.00000
 Mulliken charges with hydrogens summed into heavy atoms:
               1
     1  C   -0.008874
     4  C    0.008874
 Electronic spatial extent (au):  <R**2>=             83.0065
 Charge=              0.0000 electrons
 Dipole moment (field-independent basis, Debye):
    X=              0.0002    Y=             -0.0115    Z=             -0.1110  Tot=              0.1116
 Quadrupole moment (field-independent basis, Debye-Ang):
   XX=            -12.1277   YY=            -12.2479   ZZ=            -15.6226
   XY=             -0.0992   XZ=             -0.0024   YZ=             -0.0052
 Traceless Quadrupole moment (field-independent basis, Debye-Ang):
   XX=              1.2051   YY=              1.0848   ZZ=             -2.2899
   XY=             -0.0992   XZ=             -0.0024   YZ=             -0.0052
 Octapole moment (field-independent basis, Debye-Ang**2):
  XXX=              0.1468  YYY=              0.0024  ZZZ=             -0.0727  XYY=             -0.1342
  XXY=              0.0020  XXZ=             -0.1416  XZZ=              0.0413  YZZ=              0.0533
  YYZ=             -0.1904  XYZ=             -0.0350
 Hexadecapole moment (field-independent basis, Debye-Ang**3):
 XXXX=            -33.6896 YYYY=            -54.7834 ZZZZ=            -17.8112 XXXY=             -7.4356
 XXXZ=              0.0071 YYYX=            -10.7599 YYYZ=              0.0212 ZZZX=              0.0114
 ZZZY=              0.0238 XXYY=            -16.0035 XXZZ=             -9.7654 YYZZ=            -13.4462
 XXYZ=              0.0077 YYXZ=              0.0093 ZZXY=             -3.1821
 N-N= 3.322364853006D+01 E-N=-2.482237750340D+02  KE= 7.824299054500D+01
 Orbital energies and kinetic energies (alpha):
                                 1                 2
   1         O               -10.287273         15.978693
   2         O               -10.283111         15.977802
   3         O                -0.863011          1.515980
   4         O                -0.677500          1.295157
   5         O                -0.567430          0.954644
   6         O                -0.503344          1.297903
   7         O                -0.446874          1.070136
   8         O                -0.353231          1.031180
   9         V                 0.076773          1.185049
  10         V                 0.142652          0.578892
  11         V                 0.170058          0.562015
  12         V                 0.175832          0.656921
  13         V                 0.241481          0.564193
  14         V                 0.370121          0.878516
  15         V                 0.390964          0.771817
  16         V                 0.407708          0.952079
  17         V                 0.474670          1.196685
  18         V                 0.496230          1.390048
  19         V                 0.496630          1.346847
  20         V                 0.590711          1.640972
  21         V                 0.672368          1.603552
  22         V                 0.705920          2.129260
  23         V                 0.773351          2.220944
  24         V                 0.782367          2.575907
  25         V                 0.851131          1.106039
  26         V                 0.938877          3.337428
  27         V                 2.226799          3.932601
  28         V                 2.300152          4.017618
  29         V                 2.335189          4.328921
  30         V                 2.418960          4.585801
  31         V                 2.670258          6.296929
  32         V                 2.820238          6.310041
  33         V                 2.871520          6.156145
  34         V                 2.956130          6.215279
  35         V                 3.126897          6.816105
  36         V                 3.346936          6.402670
  37         V                23.368012         60.082880
  38         V                23.699758         60.194915
 Total kinetic energy from orbitals= 7.824299054500D+01
 Calling FoFJK, ICntrl=  10005127 FMM=F ISym2X=0 I1Cent= 0 IOpClX= 0 NMat=1 NMatS=1 NMatT=0.
 -------------------------------------------------------------------
 Center     Atomic                   Forces (Hartrees/Bohr)
 Number     Number              X              Y              Z
 -------------------------------------------------------------------
      1        6           0.018228142    0.033021519    0.003396846
      2        1          -0.005524385   -0.031080079   -0.001197230
      3        1          -0.022520727   -0.018997705   -0.001970152
      4        6          -0.025297147   -0.042559220    0.003716902
      5        1          -0.001765934    0.039802738   -0.001568303
      6        1           0.036880051    0.019812747   -0.002378063
 -------------------------------------------------------------------
 Cartesian Forces:  Max     0.042559220 RMS     0.022505984

 GradGradGradGradGradGradGradGradGradGradGradGradGradGradGradGradGradGrad
 Berny optimization.
 Search for a local minimum.
 Step number   1 out of a maximum of    2
 All quantities printed in internal units (Hartrees-Bohrs-Radians)
 Second derivative matrix not updated -- first step.
 The second derivative matrix:
                          X1        Y1        Z1        X2        Y2
           X1           0.73740
           Y1           0.08846   0.84717
           Z1           0.00527   0.01021   0.16630
           X2          -0.16090   0.09634   0.00261   0.13877
           Y2           0.10421  -0.30196  -0.00868  -0.11617   0.29131
           Z2           0.00394  -0.01077  -0.05511  -0.00351   0.00909
           X3          -0.34489  -0.00742  -0.00822  -0.00109  -0.00058
           Y3          -0.01549  -0.10827  -0.00211   0.03322   0.01787
           Z3          -0.01069  -0.00200  -0.05460   0.00160   0.00051
           X4          -0.25411  -0.16441  -0.00087   0.02324   0.01253
           Y4          -0.16409  -0.44449  -0.00152  -0.01339  -0.00722
           Z4           0.00145   0.00253  -0.08700  -0.00070  -0.00091
           X5           0.02298  -0.01324   0.00072  -0.00001   0.00000
           Y5           0.01391  -0.00802   0.00100   0.00001  -0.00000
           Z5          -0.00052   0.00032   0.01510   0.00028  -0.00014
           X6          -0.00046   0.00027   0.00049  -0.00001   0.00000
           Y6          -0.02701   0.01557   0.00110   0.00000  -0.00000
           Z6           0.00054  -0.00029   0.01531  -0.00028   0.00015
                          Z2        X3        Y3        Z3        X4
           Z2           0.02859
           X3          -0.00035   0.34516
           Y3           0.00161   0.00847   0.07531
           Z3           0.01060   0.00899   0.00153   0.02820
           X4           0.00045   0.00084  -0.02621  -0.00042   0.79720
           Y4          -0.00023  -0.00048   0.01510   0.00027   0.06152
           Z4           0.01598  -0.00042  -0.00102   0.01573  -0.00741
           X5          -0.00026  -0.00001   0.00000   0.00026  -0.18238
           Y5           0.00017   0.00000  -0.00000  -0.00016   0.11790
           Z5           0.00869   0.00025  -0.00016  -0.00864  -0.00463
           X6          -0.00027  -0.00001   0.00000   0.00026  -0.38479
           Y6           0.00014   0.00000  -0.00000  -0.00014  -0.00132
           Z6          -0.00875  -0.00025   0.00016   0.00870   0.01290
                          Y4        Z4        X5        Y5        Z5
           Y4           0.86125
           Z4          -0.01321   0.16560
           X5           0.11158  -0.00309   0.15888
           Y5          -0.30894   0.01014  -0.13217   0.29653
           Z5           0.01239  -0.05492   0.00432  -0.01037   0.02863
           X6           0.00487   0.01016   0.00054   0.00034   0.00030
           Y6          -0.11571   0.00248   0.03382   0.02043  -0.00205
           Z6           0.00229  -0.05538  -0.00196  -0.00077   0.01113
                          X6        Y6        Z6
           X6           0.38473
           Y6          -0.00549   0.07971
           Z6          -0.01095  -0.00154   0.02899
 ITU=  0
     Eigenvalues ---    0.03483   0.04517   0.09232   0.10194   0.13511
     Eigenvalues ---    0.18743   0.24882   0.31120   0.55870   0.76808
     Eigenvalues ---    1.04573   1.51035
 Quadratic step=4.104D-01 exceeds max=3.000D-01 adjusted using Lamda=-4.015D-02.
 Angle between NR and scaled steps=   5.12 degrees.
 Angle between quadratic step and forces=  48.98 degrees.
 Linear search not attempted -- first point.
 B after Tr=    -0.000181   -0.001746    0.002524
         Rot=    1.000000    0.000030   -0.000023    0.000002 Ang=   0.00 deg.
 Variable       Old X    -DE/DX   Delta X   Delta X   Delta X     New X
                                 (Linear)    (Quad)   (Total)
    X1       -0.63160   0.01823   0.00000  -0.00383  -0.00401  -0.63561
    Y1       -1.10006   0.03302   0.00000  -0.00961  -0.01135  -1.11141
    Z1        0.01353   0.00340   0.00000   0.00601   0.00863   0.02216
    X2        0.34131  -0.00552   0.00000  -0.08806  -0.08825   0.25305
    Y2       -2.90327  -0.03108   0.00000  -0.12530  -0.12705  -3.03032
    Z2       -0.04728  -0.00120   0.00000  -0.00096   0.00173  -0.04555
    X3       -2.69355  -0.02252   0.00000  -0.05936  -0.05955  -2.75310
    Y3       -1.16500  -0.01900   0.00000  -0.12386  -0.12560  -1.29060
    Z3       -0.04515  -0.00197   0.00000  -0.01194  -0.00921  -0.05436
    X4        0.64697  -0.02530   0.00000   0.00307   0.00290   0.64986
    Y4        1.11905  -0.04256   0.00000   0.00237   0.00062   1.11968
    Z4        0.00993   0.00372   0.00000   0.00444   0.00687   0.01680
    X5       -0.39737  -0.00177   0.00000   0.05857   0.05840  -0.33897
    Y5        2.84104   0.03980   0.00000   0.13402   0.13227   2.97331
    Z5       -0.05426  -0.00157   0.00000  -0.00100   0.00136  -0.05290
    X6        2.64891   0.03688   0.00000   0.09069   0.09052   2.73943
    Y6        1.08338   0.01981   0.00000   0.13287   0.13110   1.21448
    Z6       -0.05145  -0.00238   0.00000  -0.01171  -0.00938  -0.06083
         Item               Value     Threshold  Converged?
 Maximum Force            0.042559     0.000450     NO 
 RMS     Force            0.022506     0.000300     NO 
 Maximum Displacement     0.132269     0.001800     NO 
 RMS     Displacement     0.070708     0.001200     NO 
 Predicted change in Energy=-1.120986D-02
 GradGradGradGradGradGradGradGradGradGradGradGradGradGradGradGradGradGrad

 Unable to Open any file for archive entry.
 1\1\GINC-BHG0001\Force\RwB97XD TD-FC\6-311G\C2H4\BWEIGHT\12-Jan-2023\0
 \\# WB97XD/6-311G SCF=XQC TD=(read,singlets,nstates=3,root=2) FORCE no
 sym pop=full guess=read\\MD Step 79\\0,1\C,-0.33422811,-0.58212908,0.0
 0715798\H,0.18061101,-1.53634318,-0.02502026\H,-1.42536774,-0.61649184
 ,-0.02389277\C,0.34236032,0.59217815,0.00525314\H,-0.21027823,1.503412
 35,-0.0287151\H,1.40174467,0.57329802,-0.02722661\\Version=ES64L-G16Re
 vC.01\HF=-78.5552896\RMSD=3.510e-10\RMSF=2.251e-02\Dipole=-0.0030535,-
 0.1498332,-0.0854825\PG=C01 [X(C2H4)]\\@
 The archive entry for this job was punched.


 THE RED LIGHT IS ALWAYS LONGER THAN THE GREEN LIGHT.

                     -- PETER'S THEORY OF RELATIVITY
 Job cpu time:       0 days  0 hours  1 minutes 23.3 seconds.
 Elapsed time:       0 days  0 hours  0 minutes  9.3 seconds.
 File lengths (MBytes):  RWF=    272 Int=      0 D2E=      0 Chk=     32 Scr=     32
 Normal termination of Gaussian 16 at Thu Jan 12 17:02:21 2023.
