 Entering Gaussian System, Link 0=g16
 Initial command:
 /software/gaussian/g16-c01/avx/g16/l1.exe "/gpfs/fs2/scratch/bweight/software/SQD/src/NAMD/TEST_POP_FULL/G16/GS_NEW/Gau-21866.inp" -scrdir="/gpfs/fs2/scratch/bweight/software/SQD/src/NAMD/TEST_POP_FULL/G16/GS_NEW/"
 Entering Link 1 = /software/gaussian/g16-c01/avx/g16/l1.exe PID=     21867.
  
 Copyright (c) 1988-2019, Gaussian, Inc.  All Rights Reserved.
  
 This is part of the Gaussian(R) 16 program.  It is based on
 the Gaussian(R) 09 system (copyright 2009, Gaussian, Inc.),
 the Gaussian(R) 03 system (copyright 2003, Gaussian, Inc.),
 the Gaussian(R) 98 system (copyright 1998, Gaussian, Inc.),
 the Gaussian(R) 94 system (copyright 1995, Gaussian, Inc.),
 the Gaussian 92(TM) system (copyright 1992, Gaussian, Inc.),
 the Gaussian 90(TM) system (copyright 1990, Gaussian, Inc.),
 the Gaussian 88(TM) system (copyright 1988, Gaussian, Inc.),
 the Gaussian 86(TM) system (copyright 1986, Carnegie Mellon
 University), and the Gaussian 82(TM) system (copyright 1983,
 Carnegie Mellon University). Gaussian is a federally registered
 trademark of Gaussian, Inc.
  
 This software contains proprietary and confidential information,
 including trade secrets, belonging to Gaussian, Inc.
  
 This software is provided under written license and may be
 used, copied, transmitted, or stored only in accord with that
 written license.
  
 The following legend is applicable only to US Government
 contracts under FAR:
  
                    RESTRICTED RIGHTS LEGEND
  
 Use, reproduction and disclosure by the US Government is
 subject to restrictions as set forth in subparagraphs (a)
 and (c) of the Commercial Computer Software - Restricted
 Rights clause in FAR 52.227-19.
  
 Gaussian, Inc.
 340 Quinnipiac St., Bldg. 40, Wallingford CT 06492
  
  
 ---------------------------------------------------------------
 Warning -- This program may not be used in any manner that
 competes with the business of Gaussian, Inc. or will provide
 assistance to any competitor of Gaussian, Inc.  The licensee
 of this program is prohibited from giving any competitor of
 Gaussian, Inc. access to this program.  By using this program,
 the user acknowledges that Gaussian, Inc. is engaged in the
 business of creating and licensing software in the field of
 computational chemistry and represents and warrants to the
 licensee that it is not a competitor of Gaussian, Inc. and that
 it will not use this program in any manner prohibited above.
 ---------------------------------------------------------------
  

 Cite this work as:
 Gaussian 16, Revision C.01,
 M. J. Frisch, G. W. Trucks, H. B. Schlegel, G. E. Scuseria, 
 M. A. Robb, J. R. Cheeseman, G. Scalmani, V. Barone, 
 G. A. Petersson, H. Nakatsuji, X. Li, M. Caricato, A. V. Marenich, 
 J. Bloino, B. G. Janesko, R. Gomperts, B. Mennucci, H. P. Hratchian, 
 J. V. Ortiz, A. F. Izmaylov, J. L. Sonnenberg, D. Williams-Young, 
 F. Ding, F. Lipparini, F. Egidi, J. Goings, B. Peng, A. Petrone, 
 T. Henderson, D. Ranasinghe, V. G. Zakrzewski, J. Gao, N. Rega, 
 G. Zheng, W. Liang, M. Hada, M. Ehara, K. Toyota, R. Fukuda, 
 J. Hasegawa, M. Ishida, T. Nakajima, Y. Honda, O. Kitao, H. Nakai, 
 T. Vreven, K. Throssell, J. A. Montgomery, Jr., J. E. Peralta, 
 F. Ogliaro, M. J. Bearpark, J. J. Heyd, E. N. Brothers, K. N. Kudin, 
 V. N. Staroverov, T. A. Keith, R. Kobayashi, J. Normand, 
 K. Raghavachari, A. P. Rendell, J. C. Burant, S. S. Iyengar, 
 J. Tomasi, M. Cossi, J. M. Millam, M. Klene, C. Adamo, R. Cammi, 
 J. W. Ochterski, R. L. Martin, K. Morokuma, O. Farkas, 
 J. B. Foresman, and D. J. Fox, Gaussian, Inc., Wallingford CT, 2019.
 
 ******************************************
 Gaussian 16:  ES64L-G16RevC.01  3-Jul-2019
                 2-Feb-2023 
 ******************************************
 %oldchk=../GS_OLD/geometry.chk
 %chk=geometry.chk
 %nprocshared=12
 Will use up to   12 processors via shared memory.
 %mem=30GB
 Copying data from "../GS_OLD/geometry.chk" to current chk file "geometry.chk"
 IOpt=  2 FromEx=T IUOpen= 4 IOptOp= 5 NList=   0 IFRang= 0 IUIn= 4 IUOut= 2.
 -------------------------------------------
 # AM1/STO-5G SCF=XQC FORCE nosym guess=read
 -------------------------------------------
 1/10=7,30=1,38=1/1,3;
 2/12=2,15=1,17=6,18=5,40=1/2;
 3/5=2,6=5,25=1,41=700000,71=1,116=-2/1,2,3;
 4/5=1,35=1/1;
 5/5=2,8=3,13=1,35=1,38=6/2,8;
 6/7=2,8=2,9=2,10=2,28=1/1;
 7/29=1,30=1/1,2,3,16;
 1/10=7,30=1/3;
 99//99;
 ---------
 MD Step 4
 ---------
 Symbolic Z-matrix:
 Charge =  0 Multiplicity = 1
 C                    -1.03614  -1.17411   0.00172 
 C                     0.31486  -1.14153   0.00277 
 C                     1.01318   0.00026  -0.00156 
 C                     0.31471   1.14183  -0.00237 
 C                    -1.03625   1.1741   -0.00079 
 C                    -1.74277  -0.00001   0.00054 
 H                    -1.6721   -2.0623    0.00384 
 H                     0.77449  -2.11945   0.00531 
 H                     0.77426   2.11978  -0.0028 
 H                    -1.67267   2.06186  -0.00009 
 N                     2.34529   0.00017  -0.00498 
 C                     3.09362  -1.23123  -0.00046 
 H                     4.14507  -1.0242   -0.00186 
 H                     2.82193  -1.83005   0.87741 
 H                     2.82105  -1.83564  -0.87467 
 C                     3.09438   1.23083   0.0047 
 H                     4.14564   1.02347  -0.01494 
 H                     2.80931   1.84422  -0.85998 
 H                     2.8356    1.82164   0.89165 
 C                    -3.20505  -0.00028   0. 
 N                    -4.32004   0.00001  -0.00064 
 

 GradGradGradGradGradGradGradGradGradGradGradGradGradGradGradGradGradGrad
 Berny optimization.
 Initialization pass.
 Trust Radius=3.00D-01 FncErr=1.00D-07 GrdErr=1.00D-07 EigMax=2.50D+02 EigMin=1.00D-04
 Number of steps in this run=      2 maximum allowed number of steps=      2.
 GradGradGradGradGradGradGradGradGradGradGradGradGradGradGradGradGradGrad

                          Input orientation:                          
 ---------------------------------------------------------------------
 Center     Atomic      Atomic             Coordinates (Angstroms)
 Number     Number       Type             X           Y           Z
 ---------------------------------------------------------------------
      1          6           0       -1.036137   -1.174108    0.001721
      2          6           0        0.314859   -1.141532    0.002769
      3          6           0        1.013182    0.000263   -0.001558
      4          6           0        0.314711    1.141829   -0.002374
      5          6           0       -1.036254    1.174096   -0.000794
      6          6           0       -1.742767   -0.000013    0.000543
      7          1           0       -1.672097   -2.062299    0.003837
      8          1           0        0.774492   -2.119452    0.005312
      9          1           0        0.774259    2.119775   -0.002802
     10          1           0       -1.672674    2.061859   -0.000088
     11          7           0        2.345293    0.000167   -0.004983
     12          6           0        3.093618   -1.231226   -0.000460
     13          1           0        4.145072   -1.024204   -0.001864
     14          1           0        2.821934   -1.830046    0.877406
     15          1           0        2.821053   -1.835644   -0.874674
     16          6           0        3.094381    1.230826    0.004699
     17          1           0        4.145645    1.023474   -0.014943
     18          1           0        2.809311    1.844220   -0.859979
     19          1           0        2.835603    1.821638    0.891652
     20          6           0       -3.205052   -0.000284    0.000002
     21          7           0       -4.320044    0.000009   -0.000635
 ---------------------------------------------------------------------
                    Distance matrix (angstroms):
                    1          2          3          4          5
     1  C    0.000000
     2  C    1.351389   0.000000
     3  C    2.361963   1.338420   0.000000
     4  C    2.681114   2.283366   1.338296   0.000000
     5  C    2.348206   2.680980   2.361795   1.351351   0.000000
     6  C    1.370339   2.353061   2.755951   2.353089   1.370290
     7  H    1.092397   2.189934   3.385988   3.770130   3.298268
     8  H    2.042563   1.080554   2.133123   3.293541   3.758497
     9  H    3.758620   3.293509   2.132936   1.080539   2.042614
    10  H    3.297979   3.769881   3.385853   2.190013   1.092315
    11  N    3.579530   2.329420   1.332115   2.329520   3.579523
    12  C    4.130150   2.780208   2.417598   3.654274   4.779270
    13  H    5.183378   3.832012   3.295188   4.400382   5.628380
    14  H    4.010210   2.743076   2.719226   3.986505   4.968070
    15  H    4.010437   2.744577   2.720529   3.988484   4.970011
    16  C    4.779633   3.654289   2.417791   2.781104   4.131028
    17  H    5.628544   4.400282   3.295370   3.832783   5.184107
    18  H    4.963900   3.985140   2.713512   2.729812   3.996953
    19  H    4.975624   3.990568   2.726985   2.759768   4.025797
    20  C    2.466183   3.700301   4.218235   3.700427   2.466345
    21  N    3.487493   4.773411   5.333226   4.773333   3.487371
                    6          7          8          9         10
     6  C    0.000000
     7  H    2.063499   0.000000
     8  H    3.290690   2.447257   0.000000
     9  H    3.290735   4.845043   4.239235   0.000000
    10  H    2.063063   4.124159   4.844792   2.447619   0.000000
    11  N    4.088064   4.515890   2.638239   2.638350   4.516044
    12  C    4.990642   4.837638   2.483410   4.075370   5.793267
    13  H    5.976255   5.909072   3.544069   4.609445   6.585586
    14  H    4.995439   4.584035   2.244175   4.535287   6.009860
    15  H    4.996398   4.583836   2.245736   4.538156   6.012404
    16  C    4.991291   5.793444   4.075077   2.484604   4.838951
    17  H    5.976718   6.585474   4.609020   3.545175   5.910270
    18  H    4.986293   6.007503   4.538713   2.225336   4.568913
    19  H    5.007390   6.016023   4.534971   2.266732   4.601898
    20  C    1.462285   2.569410   4.508622   4.508833   2.569167
    21  N    2.577277   3.356301   5.517830   5.517729   3.355562
                   11         12         13         14         15
    11  N    0.000000
    12  C    1.440951   0.000000
    13  H    2.070881   1.071641   0.000000
    14  H    2.086978   1.096835   1.781345   0.000000
    15  H    2.086363   1.097207   1.781364   1.752088   0.000000
    16  C    1.440746   2.462057   2.487800   3.194493   3.201756
    17  H    2.070875   2.488099   2.047719   3.269721   3.266226
    18  H    2.084913   3.205928   3.278486   4.064345   3.679912
    19  H    2.088567   3.190989   3.257590   3.651738   4.061505
    20  C    5.550347   6.417824   7.421101   6.359436   6.359838
    21  N    6.665338   7.515206   8.526852   7.424817   7.424879
                   16         17         18         19         20
    16  C    0.000000
    17  H    1.071698   0.000000
    18  H    1.097810   1.781432   0.000000
    19  H    1.096682   1.781907   1.751974   0.000000
    20  C    6.418607   7.421661   6.349357   6.372123   0.000000
    21  N    7.515893   8.527343   7.413993   7.437593   1.114992
                   21
    21  N    0.000000
 Symmetry turned off by external request.
 Stoichiometry    C9H10N2
 Framework group  C1[X(C9H10N2)]
 Deg. of freedom    57
 Full point group                 C1      NOp   1
 Rotational constants (GHZ):           3.6858150           0.5981036           0.5178625
 Standard basis: VSTO-5G (5D, 7F)
    54 basis functions,   324 primitive gaussians,    54 cartesian basis functions
    28 alpha electrons       28 beta electrons
       nuclear repulsion energy       316.1784754995 Hartrees.
 Integral buffers will be    131072 words long.
 Regular integral format.
 Two-electron integral symmetry is turned off.
 Do NDO integrals.
 One-electron integrals computed using PRISM.
 NBasis=    54 RedAO= F EigKep=  0.00D+00  NBF=    54
 NBsUse=    54 1.00D-04 EigRej=  0.00D+00 NBFU=    54
 Initial guess from the checkpoint file:  "geometry.chk"
 B after Tr=    -0.000584    0.000002    0.000003
         Rot=    1.000000   -0.000000    0.000001   -0.000000 Ang=  -0.00 deg.
 Keep J ints in memory in canonical form, NReq=867381.
 Overlap will be assumed to be unity.
 Requested convergence on RMS density matrix=1.00D-08 within  32 cycles.
 Requested convergence on MAX density matrix=1.00D-06.
 Requested convergence on             energy=1.00D-06.
 No special actions if energy rises.
 SCF Done:  E(RAM1) =  0.149647472514     A.U. after   11 cycles
            NFock= 10  Conv=0.61D-08     -V/T= 1.0015
 QCSCF skips out because SCF is already converged.

 **********************************************************************

            Population analysis using the SCF Density.

 **********************************************************************

 Alpha  occ. eigenvalues --   -1.55379  -1.42696  -1.36255  -1.19960  -1.17961
 Alpha  occ. eigenvalues --   -1.08670  -0.99073  -0.86808  -0.83772  -0.73001
 Alpha  occ. eigenvalues --   -0.68183  -0.64093  -0.61656  -0.57451  -0.55773
 Alpha  occ. eigenvalues --   -0.54336  -0.53852  -0.53444  -0.51044  -0.50945
 Alpha  occ. eigenvalues --   -0.49727  -0.49520  -0.48782  -0.47067  -0.43326
 Alpha  occ. eigenvalues --   -0.40988  -0.37570  -0.31554
 Alpha virt. eigenvalues --    0.00846   0.01622   0.07218   0.08337   0.08806
 Alpha virt. eigenvalues --    0.11612   0.11781   0.12837   0.13493   0.14154
 Alpha virt. eigenvalues --    0.14482   0.14519   0.15188   0.15590   0.16052
 Alpha virt. eigenvalues --    0.16098   0.16835   0.16994   0.17629   0.18574
 Alpha virt. eigenvalues --    0.19422   0.20397   0.20779   0.21963   0.23329
 Alpha virt. eigenvalues --    0.25439
          Condensed to atoms (all electrons):
               1          2          3          4          5          6
     1  C    4.048035   0.000000   0.000000   0.000000   0.000000   0.000000
     2  C    0.000000   4.220370   0.000000   0.000000   0.000000   0.000000
     3  C    0.000000   0.000000   3.829640   0.000000   0.000000   0.000000
     4  C    0.000000   0.000000   0.000000   4.220307   0.000000   0.000000
     5  C    0.000000   0.000000   0.000000   0.000000   4.047997   0.000000
     6  C    0.000000   0.000000   0.000000   0.000000   0.000000   4.094630
     7  H    0.000000   0.000000   0.000000   0.000000   0.000000   0.000000
     8  H    0.000000   0.000000   0.000000   0.000000   0.000000   0.000000
     9  H    0.000000   0.000000   0.000000   0.000000   0.000000   0.000000
    10  H    0.000000   0.000000   0.000000   0.000000   0.000000   0.000000
    11  N    0.000000   0.000000   0.000000   0.000000   0.000000   0.000000
    12  C    0.000000   0.000000   0.000000   0.000000   0.000000   0.000000
    13  H    0.000000   0.000000   0.000000   0.000000   0.000000   0.000000
    14  H    0.000000   0.000000   0.000000   0.000000   0.000000   0.000000
    15  H    0.000000   0.000000   0.000000   0.000000   0.000000   0.000000
    16  C    0.000000   0.000000   0.000000   0.000000   0.000000   0.000000
    17  H    0.000000   0.000000   0.000000   0.000000   0.000000   0.000000
    18  H    0.000000   0.000000   0.000000   0.000000   0.000000   0.000000
    19  H    0.000000   0.000000   0.000000   0.000000   0.000000   0.000000
    20  C    0.000000   0.000000   0.000000   0.000000   0.000000   0.000000
    21  N    0.000000   0.000000   0.000000   0.000000   0.000000   0.000000
               7          8          9         10         11         12
     1  C    0.000000   0.000000   0.000000   0.000000   0.000000   0.000000
     2  C    0.000000   0.000000   0.000000   0.000000   0.000000   0.000000
     3  C    0.000000   0.000000   0.000000   0.000000   0.000000   0.000000
     4  C    0.000000   0.000000   0.000000   0.000000   0.000000   0.000000
     5  C    0.000000   0.000000   0.000000   0.000000   0.000000   0.000000
     6  C    0.000000   0.000000   0.000000   0.000000   0.000000   0.000000
     7  H    0.860967   0.000000   0.000000   0.000000   0.000000   0.000000
     8  H    0.000000   0.869020   0.000000   0.000000   0.000000   0.000000
     9  H    0.000000   0.000000   0.869020   0.000000   0.000000   0.000000
    10  H    0.000000   0.000000   0.000000   0.860979   0.000000   0.000000
    11  N    0.000000   0.000000   0.000000   0.000000   5.296033   0.000000
    12  C    0.000000   0.000000   0.000000   0.000000   0.000000   4.059751
    13  H    0.000000   0.000000   0.000000   0.000000   0.000000   0.000000
    14  H    0.000000   0.000000   0.000000   0.000000   0.000000   0.000000
    15  H    0.000000   0.000000   0.000000   0.000000   0.000000   0.000000
    16  C    0.000000   0.000000   0.000000   0.000000   0.000000   0.000000
    17  H    0.000000   0.000000   0.000000   0.000000   0.000000   0.000000
    18  H    0.000000   0.000000   0.000000   0.000000   0.000000   0.000000
    19  H    0.000000   0.000000   0.000000   0.000000   0.000000   0.000000
    20  C    0.000000   0.000000   0.000000   0.000000   0.000000   0.000000
    21  N    0.000000   0.000000   0.000000   0.000000   0.000000   0.000000
              13         14         15         16         17         18
     1  C    0.000000   0.000000   0.000000   0.000000   0.000000   0.000000
     2  C    0.000000   0.000000   0.000000   0.000000   0.000000   0.000000
     3  C    0.000000   0.000000   0.000000   0.000000   0.000000   0.000000
     4  C    0.000000   0.000000   0.000000   0.000000   0.000000   0.000000
     5  C    0.000000   0.000000   0.000000   0.000000   0.000000   0.000000
     6  C    0.000000   0.000000   0.000000   0.000000   0.000000   0.000000
     7  H    0.000000   0.000000   0.000000   0.000000   0.000000   0.000000
     8  H    0.000000   0.000000   0.000000   0.000000   0.000000   0.000000
     9  H    0.000000   0.000000   0.000000   0.000000   0.000000   0.000000
    10  H    0.000000   0.000000   0.000000   0.000000   0.000000   0.000000
    11  N    0.000000   0.000000   0.000000   0.000000   0.000000   0.000000
    12  C    0.000000   0.000000   0.000000   0.000000   0.000000   0.000000
    13  H    0.910631   0.000000   0.000000   0.000000   0.000000   0.000000
    14  H    0.000000   0.927332   0.000000   0.000000   0.000000   0.000000
    15  H    0.000000   0.000000   0.926666   0.000000   0.000000   0.000000
    16  C    0.000000   0.000000   0.000000   4.059753   0.000000   0.000000
    17  H    0.000000   0.000000   0.000000   0.000000   0.910571   0.000000
    18  H    0.000000   0.000000   0.000000   0.000000   0.000000   0.926694
    19  H    0.000000   0.000000   0.000000   0.000000   0.000000   0.000000
    20  C    0.000000   0.000000   0.000000   0.000000   0.000000   0.000000
    21  N    0.000000   0.000000   0.000000   0.000000   0.000000   0.000000
              19         20         21
     1  C    0.000000   0.000000   0.000000
     2  C    0.000000   0.000000   0.000000
     3  C    0.000000   0.000000   0.000000
     4  C    0.000000   0.000000   0.000000
     5  C    0.000000   0.000000   0.000000
     6  C    0.000000   0.000000   0.000000
     7  H    0.000000   0.000000   0.000000
     8  H    0.000000   0.000000   0.000000
     9  H    0.000000   0.000000   0.000000
    10  H    0.000000   0.000000   0.000000
    11  N    0.000000   0.000000   0.000000
    12  C    0.000000   0.000000   0.000000
    13  H    0.000000   0.000000   0.000000
    14  H    0.000000   0.000000   0.000000
    15  H    0.000000   0.000000   0.000000
    16  C    0.000000   0.000000   0.000000
    17  H    0.000000   0.000000   0.000000
    18  H    0.000000   0.000000   0.000000
    19  H    0.927398   0.000000   0.000000
    20  C    0.000000   4.077380   0.000000
    21  N    0.000000   0.000000   5.056825
 Mulliken charges:
               1
     1  C   -0.048035
     2  C   -0.220370
     3  C    0.170360
     4  C   -0.220307
     5  C   -0.047997
     6  C   -0.094630
     7  H    0.139033
     8  H    0.130980
     9  H    0.130980
    10  H    0.139021
    11  N   -0.296033
    12  C   -0.059751
    13  H    0.089369
    14  H    0.072668
    15  H    0.073334
    16  C   -0.059753
    17  H    0.089429
    18  H    0.073306
    19  H    0.072602
    20  C   -0.077380
    21  N   -0.056825
 Sum of Mulliken charges =   0.00000
 Mulliken charges with hydrogens summed into heavy atoms:
               1
     1  C    0.090997
     2  C   -0.089390
     3  C    0.170360
     4  C   -0.089327
     5  C    0.091024
     6  C   -0.094630
    11  N   -0.296033
    12  C    0.175620
    16  C    0.175584
    20  C   -0.077380
    21  N   -0.056825
 Charge=              0.0000 electrons
 Dipole moment (field-independent basis, Debye):
    X=              5.5082    Y=             -0.0007    Z=              0.0179  Tot=              5.5083
 N-N= 3.161784754995D+02 E-N=-4.939691840717D+02  KE=-9.723072927446D+01
 Calling FoFJK, ICntrl=      2127 FMM=F ISym2X=0 I1Cent= 0 IOpClX= 0 NMat=1 NMatS=1 NMatT=0.
 -------------------------------------------------------------------
 Center     Atomic                   Forces (Hartrees/Bohr)
 Number     Number              X              Y              Z
 -------------------------------------------------------------------
      1        6          -0.048358153   -0.027948237    0.000229214
      2        6          -0.021790742   -0.111032250    0.000091005
      3        6           0.041286988   -0.000115806    0.000143472
      4        6          -0.021797413    0.111132935    0.000009917
      5        6          -0.048453287    0.027937991   -0.000003539
      6        6          -0.076728425   -0.000119708   -0.000128126
      7        1           0.006596121   -0.015980697   -0.000006784
      8        1           0.013154661   -0.017492991    0.000069681
      9        1           0.013156379    0.017512217   -0.000023176
     10        1           0.006589749    0.016072683   -0.000046873
     11        7           0.099047085   -0.000138213   -0.000128683
     12        6          -0.027451727    0.009597740   -0.000156349
     13        1           0.034232865    0.004861809   -0.000030140
     14        1          -0.002321262   -0.009726809    0.019019661
     15        1          -0.002340112   -0.009669870   -0.018741038
     16        6          -0.027516070   -0.009267210   -0.000690256
     17        1           0.034161607   -0.004865544   -0.000512733
     18        1          -0.002321921    0.009842497   -0.018350115
     19        1          -0.002212435    0.009351061    0.019219173
     20        6           0.178363088    0.000039238    0.000112166
     21        7          -0.145296995    0.000009163   -0.000076476
 -------------------------------------------------------------------
 Cartesian Forces:  Max     0.178363088 RMS     0.041719271

 GradGradGradGradGradGradGradGradGradGradGradGradGradGradGradGradGradGrad
 Berny optimization.
 Search for a local minimum.
 Step number   1 out of a maximum of    2
 All quantities printed in internal units (Hartrees-Bohrs-Radians)
 Second derivative matrix not updated -- first step.
 ITU=  0
     Eigenvalues ---    0.00235   0.00267   0.00379   0.00679   0.00685
     Eigenvalues ---    0.01266   0.01584   0.01853   0.02194   0.02999
     Eigenvalues ---    0.03223   0.03596   0.04599   0.05985   0.06235
     Eigenvalues ---    0.06474   0.06533   0.07066   0.07297   0.09713
     Eigenvalues ---    0.10499   0.11945   0.13214   0.13377   0.13816
     Eigenvalues ---    0.14222   0.15098   0.16040   0.18472   0.20052
     Eigenvalues ---    0.21185   0.22635   0.29428   0.31608   0.35341
     Eigenvalues ---    0.37170   0.42353   0.43750   0.48622   0.53094
     Eigenvalues ---    0.58246   0.72083   0.73414   0.88096   0.90811
     Eigenvalues ---    0.93677   0.97963   1.03694   1.07412   1.24822
     Eigenvalues ---    1.25043   1.42093   1.58706   1.66155   1.90751
     Eigenvalues ---    1.98372   3.47101
 Quadratic step=1.089D+00 exceeds max=3.000D-01 adjusted using Lamda=-3.093D-01.
 Angle between NR and scaled steps=  41.11 degrees.
 Angle between quadratic step and forces=  41.02 degrees.
 Linear search not attempted -- first point.
 B after Tr=    -0.003586   -0.000003   -0.000014
         Rot=    1.000000    0.000002   -0.000003   -0.000001 Ang=   0.00 deg.
 Variable       Old X    -DE/DX   Delta X   Delta X   Delta X     New X
                                 (Linear)    (Quad)   (Total)
    X1       -1.95801  -0.04836   0.00000  -0.06592  -0.06950  -2.02752
    Y1       -2.21874  -0.02795   0.00000  -0.04881  -0.04881  -2.26756
    Z1        0.00325   0.00023   0.00000   0.00038   0.00038   0.00364
    X2        0.59500  -0.02179   0.00000  -0.01987  -0.02346   0.57154
    Y2       -2.15718  -0.11103   0.00000  -0.10964  -0.10964  -2.26682
    Z2        0.00523   0.00009   0.00000  -0.00007  -0.00008   0.00515
    X3        1.91464   0.04129   0.00000   0.03505   0.03146   1.94610
    Y3        0.00050  -0.00012   0.00000  -0.00008  -0.00008   0.00041
    Z3       -0.00294   0.00014   0.00000   0.00026   0.00023  -0.00271
    X4        0.59472  -0.02180   0.00000  -0.01987  -0.02346   0.57125
    Y4        2.15774   0.11113   0.00000   0.10964   0.10964   2.26738
    Z4       -0.00449   0.00001   0.00000   0.00024   0.00021  -0.00427
    X5       -1.95824  -0.04845   0.00000  -0.06601  -0.06960  -2.02784
    Y5        2.21872   0.02794   0.00000   0.04878   0.04877   2.26749
    Z5       -0.00150  -0.00000   0.00000  -0.00003  -0.00005  -0.00155
    X6       -3.29335  -0.07673   0.00000  -0.06714  -0.07073  -3.36408
    Y6       -0.00002  -0.00012   0.00000  -0.00009  -0.00010  -0.00012
    Z6        0.00103  -0.00013   0.00000  -0.00016  -0.00015   0.00088
    X7       -3.15981   0.00660   0.00000  -0.00899  -0.01257  -3.17238
    Y7       -3.89718  -0.01598   0.00000  -0.06062  -0.06063  -3.95781
    Z7        0.00725  -0.00001   0.00000   0.00007   0.00009   0.00734
    X8        1.46358   0.01315   0.00000   0.03123   0.02765   1.49123
    Y8       -4.00518  -0.01749   0.00000  -0.07514  -0.07514  -4.08032
    Z8        0.01004   0.00007   0.00000   0.00014   0.00013   0.01017
    X9        1.46314   0.01316   0.00000   0.03124   0.02764   1.49078
    Y9        4.00579   0.01751   0.00000   0.07517   0.07517   4.08096
    Z9       -0.00529  -0.00002   0.00000   0.00002  -0.00002  -0.00531
   X10       -3.16089   0.00659   0.00000  -0.00900  -0.01259  -3.17349
   Y10        3.89635   0.01607   0.00000   0.06080   0.06079   3.95714
   Z10       -0.00017  -0.00005   0.00000  -0.00012  -0.00013  -0.00030
   X11        4.43196   0.09905   0.00000   0.09853   0.09494   4.52691
   Y11        0.00032  -0.00014   0.00000  -0.00010  -0.00009   0.00022
   Z11       -0.00942  -0.00013   0.00000  -0.00035  -0.00039  -0.00981
   X12        5.84609  -0.02745   0.00000   0.01178   0.00820   5.85429
   Y12       -2.32668   0.00960   0.00000  -0.00948  -0.00947  -2.33615
   Z12       -0.00087  -0.00016   0.00000   0.00005   0.00001  -0.00086
   X13        7.83305   0.03423   0.00000   0.05870   0.05512   7.88817
   Y13       -1.93546   0.00486   0.00000  -0.00235  -0.00234  -1.93780
   Z13       -0.00352  -0.00003   0.00000   0.00003  -0.00002  -0.00355
   X14        5.33268  -0.00232   0.00000   0.00047  -0.00310   5.32958
   Y14       -3.45829  -0.00973   0.00000  -0.01367  -0.01366  -3.47195
   Z14        1.65806   0.01902   0.00000   0.03259   0.03256   1.69062
   X15        5.33102  -0.00234   0.00000   0.00040  -0.00319   5.32783
   Y15       -3.46886  -0.00967   0.00000  -0.01361  -0.01361  -3.48247
   Z15       -1.65289  -0.01874   0.00000  -0.03213  -0.03216  -1.68506
   X16        5.84753  -0.02752   0.00000   0.01170   0.00811   5.85564
   Y16        2.32592  -0.00927   0.00000   0.00970   0.00971   2.33563
   Z16        0.00888  -0.00069   0.00000  -0.00064  -0.00070   0.00818
   X17        7.83413   0.03416   0.00000   0.05855   0.05496   7.88910
   Y17        1.93408  -0.00487   0.00000   0.00237   0.00238   1.93646
   Z17       -0.02824  -0.00051   0.00000  -0.00061  -0.00068  -0.02891
   X18        5.30883  -0.00232   0.00000   0.00053  -0.00307   5.30576
   Y18        3.48507   0.00984   0.00000   0.01423   0.01423   3.49930
   Z18       -1.62512  -0.01835   0.00000  -0.03185  -0.03191  -1.65703
   X19        5.35851  -0.00221   0.00000   0.00051  -0.00307   5.35544
   Y19        3.44240   0.00935   0.00000   0.01283   0.01284   3.45524
   Z19        1.68498   0.01922   0.00000   0.03272   0.03266   1.71763
   X20       -6.05667   0.17836   0.00000   0.03682   0.03324  -6.02344
   Y20       -0.00054   0.00004   0.00000   0.00010   0.00008  -0.00045
   Z20        0.00000   0.00011   0.00000  -0.00001   0.00001   0.00002
   X21       -8.16370  -0.14530   0.00000  -0.04338  -0.04697  -8.21067
   Y21        0.00002   0.00001   0.00000  -0.00001  -0.00003  -0.00001
   Z21       -0.00120  -0.00008   0.00000  -0.00004  -0.00001  -0.00121
         Item               Value     Threshold  Converged?
 Maximum Force            0.178363     0.000450     NO 
 RMS     Force            0.041719     0.000300     NO 
 Maximum Displacement     0.109642     0.001800     NO 
 RMS     Displacement     0.037745     0.001200     NO 
 Predicted change in Energy=-5.140429D-02
 GradGradGradGradGradGradGradGradGradGradGradGradGradGradGradGradGradGrad

 Unable to Open any file for archive entry.
 1\1\GINC-BHG0001\Force\RAM1\ZDO\C9H10N2\BWEIGHT\02-Feb-2023\0\\# AM1/S
 TO-5G SCF=XQC FORCE nosym guess=read\\MD Step 4\\0,1\C,-1.03613662,-1.
 17410845,0.00172068\C,0.31485925,-1.14153163,0.00276884\C,1.01318232,0
 .00026317,-0.00155754\C,0.31471052,1.141829,-0.00237387\C,-1.03625394,
 1.17409629,-0.00079406\C,-1.74276737,-0.00001312,0.0005434\H,-1.672097
 39,-2.06229854,0.00383722\H,0.77449204,-2.11945213,0.00531178\H,0.7742
 591,2.11977534,-0.00280183\H,-1.67267358,2.06185894,-0.0000883\N,2.345
 2927,0.00016734,-0.00498312\C,3.09361821,-1.2312255,-0.00045981\H,4.14
 507169,-1.02420355,-0.00186404\H,2.82193394,-1.83004646,0.8774055\H,2.
 82105257,-1.83564362,-0.87467379\C,3.09438131,1.23082583,0.00469925\H,
 4.1456449,1.02347353,-0.01494287\H,2.80931126,1.84422047,-0.85997906\H
 ,2.83560274,1.82163769,0.89165226\C,-3.2050521,-0.00028437,0.00000236\
 N,-4.32004407,0.00000912,-0.00063527\\Version=ES64L-G16RevC.01\HF=0.14
 96475\RMSD=6.136e-09\RMSF=4.172e-02\Dipole=2.1671111,-0.0002912,0.0070
 482\PG=C01 [X(C9H10N2)]\\@
 The archive entry for this job was punched.


 PATIENCE IS THE ABILITY TO IDLE YOUR MOTOR WHEN
 YOU FEEL LIKE STRIPPING YOUR GEARS.
 Job cpu time:       0 days  0 hours  0 minutes 22.7 seconds.
 Elapsed time:       0 days  0 hours  0 minutes  2.9 seconds.
 File lengths (MBytes):  RWF=    272 Int=      0 D2E=      0 Chk=     32 Scr=     32
 Normal termination of Gaussian 16 at Thu Feb  2 19:07:40 2023.
