 Entering Gaussian System, Link 0=g16
 Initial command:
 /software/gaussian/g16-c01/avx/g16/l1.exe "/gpfs/fs2/scratch/bweight/software/many_molecule_many_mode_NAMD/EXAMPLES/DMABN/GS_OPT/Gau-17143.inp" -scrdir="/gpfs/fs2/scratch/bweight/software/many_molecule_many_mode_NAMD/EXAMPLES/DMABN/GS_OPT/"
 Entering Link 1 = /software/gaussian/g16-c01/avx/g16/l1.exe PID=     17144.
  
 Copyright (c) 1988-2019, Gaussian, Inc.  All Rights Reserved.
  
 This is part of the Gaussian(R) 16 program.  It is based on
 the Gaussian(R) 09 system (copyright 2009, Gaussian, Inc.),
 the Gaussian(R) 03 system (copyright 2003, Gaussian, Inc.),
 the Gaussian(R) 98 system (copyright 1998, Gaussian, Inc.),
 the Gaussian(R) 94 system (copyright 1995, Gaussian, Inc.),
 the Gaussian 92(TM) system (copyright 1992, Gaussian, Inc.),
 the Gaussian 90(TM) system (copyright 1990, Gaussian, Inc.),
 the Gaussian 88(TM) system (copyright 1988, Gaussian, Inc.),
 the Gaussian 86(TM) system (copyright 1986, Carnegie Mellon
 University), and the Gaussian 82(TM) system (copyright 1983,
 Carnegie Mellon University). Gaussian is a federally registered
 trademark of Gaussian, Inc.
  
 This software contains proprietary and confidential information,
 including trade secrets, belonging to Gaussian, Inc.
  
 This software is provided under written license and may be
 used, copied, transmitted, or stored only in accord with that
 written license.
  
 The following legend is applicable only to US Government
 contracts under FAR:
  
                    RESTRICTED RIGHTS LEGEND
  
 Use, reproduction and disclosure by the US Government is
 subject to restrictions as set forth in subparagraphs (a)
 and (c) of the Commercial Computer Software - Restricted
 Rights clause in FAR 52.227-19.
  
 Gaussian, Inc.
 340 Quinnipiac St., Bldg. 40, Wallingford CT 06492
  
  
 ---------------------------------------------------------------
 Warning -- This program may not be used in any manner that
 competes with the business of Gaussian, Inc. or will provide
 assistance to any competitor of Gaussian, Inc.  The licensee
 of this program is prohibited from giving any competitor of
 Gaussian, Inc. access to this program.  By using this program,
 the user acknowledges that Gaussian, Inc. is engaged in the
 business of creating and licensing software in the field of
 computational chemistry and represents and warrants to the
 licensee that it is not a competitor of Gaussian, Inc. and that
 it will not use this program in any manner prohibited above.
 ---------------------------------------------------------------
  

 Cite this work as:
 Gaussian 16, Revision C.01,
 M. J. Frisch, G. W. Trucks, H. B. Schlegel, G. E. Scuseria, 
 M. A. Robb, J. R. Cheeseman, G. Scalmani, V. Barone, 
 G. A. Petersson, H. Nakatsuji, X. Li, M. Caricato, A. V. Marenich, 
 J. Bloino, B. G. Janesko, R. Gomperts, B. Mennucci, H. P. Hratchian, 
 J. V. Ortiz, A. F. Izmaylov, J. L. Sonnenberg, D. Williams-Young, 
 F. Ding, F. Lipparini, F. Egidi, J. Goings, B. Peng, A. Petrone, 
 T. Henderson, D. Ranasinghe, V. G. Zakrzewski, J. Gao, N. Rega, 
 G. Zheng, W. Liang, M. Hada, M. Ehara, K. Toyota, R. Fukuda, 
 J. Hasegawa, M. Ishida, T. Nakajima, Y. Honda, O. Kitao, H. Nakai, 
 T. Vreven, K. Throssell, J. A. Montgomery, Jr., J. E. Peralta, 
 F. Ogliaro, M. J. Bearpark, J. J. Heyd, E. N. Brothers, K. N. Kudin, 
 V. N. Staroverov, T. A. Keith, R. Kobayashi, J. Normand, 
 K. Raghavachari, A. P. Rendell, J. C. Burant, S. S. Iyengar, 
 J. Tomasi, M. Cossi, J. M. Millam, M. Klene, C. Adamo, R. Cammi, 
 J. W. Ochterski, R. L. Martin, K. Morokuma, O. Farkas, 
 J. B. Foresman, and D. J. Fox, Gaussian, Inc., Wallingford CT, 2019.
 
 ******************************************
 Gaussian 16:  ES64L-G16RevC.01  3-Jul-2019
                12-Jan-2023 
 ******************************************
 %chk=geometry.chk
 %nprocshared=12
 Will use up to   12 processors via shared memory.
 %mem=5GB
 -------------------
 #P OPT PBEPBE/3-21G
 -------------------
 1/18=20,19=15,26=3,38=1/1,3;
 2/9=110,12=2,17=6,18=5,40=1/2;
 3/5=5,11=2,25=1,30=1,71=1,74=1009/1,2,3;
 4//1;
 5/5=2,38=5/2;
 6/7=2,8=2,9=2,10=2,28=1/1;
 7//1,2,3,16;
 1/18=20,19=15,26=3/3(2);
 2/9=110/2;
 99//99;
 2/9=110/2;
 3/5=5,11=2,25=1,30=1,71=1,74=1009/1,2,3;
 4/5=5,16=3,69=1/1;
 5/5=2,38=5/2;
 7//1,2,3,16;
 1/18=20,19=15,26=3/3(-5);
 2/9=110/2;
 6/7=2,8=2,9=2,10=2,19=2,28=1/1;
 99/9=1/99;
 Leave Link    1 at Thu Jan 12 15:42:29 2023, MaxMem=   671088640 cpu:               6.2 elap:               0.6
 (Enter /software/gaussian/g16-c01/avx/g16/l101.exe)
 -------------------
 Title Card Required
 -------------------
 Symbolic Z-matrix:
 Charge =  0 Multiplicity = 1
 C                     0.14723   0.31213   0. 
 C                     1.54239   0.31213   0. 
 C                     2.23993   1.51988   0. 
 C                     1.54228   2.72839  -0.0012 
 C                     0.14745   2.72831  -0.00168 
 C                    -0.55015   1.52011  -0.00068 
 H                    -0.40253  -0.64019   0.00045 
 H                     2.0919   -0.64038   0.00132 
 H                     2.09248   3.68053  -0.00126 
 H                    -0.40267   3.68059  -0.00263 
 N                     3.70993   1.51999   0.00085 
 C                     4.20067   0.82655  -1.19882 
 H                     5.22887   1.07552  -1.35917 
 H                     4.10665  -0.23065  -1.06323 
 H                     3.6237    1.13002  -2.0473 
 C                     4.19929   0.82758   1.20168 
 H                     5.24888   1.0038    1.31218 
 H                     3.68285   1.19814   2.06242 
 H                     4.02234  -0.22321   1.10451 
 C                    -2.09015   1.52036  -0.00093 
 N                    -3.38375   1.52118  -0.00114 
 
 ITRead=  0  0  0  0  0  0  0  0  0  0  0  0  0  0  0  0  0  0  0  0
 ITRead=  0
 MicOpt= -1 -1 -1 -1 -1 -1 -1 -1 -1 -1 -1 -1 -1 -1 -1 -1 -1 -1 -1 -1
 MicOpt= -1
 NAtoms=     21 NQM=       21 NQMF=       0 NMMI=      0 NMMIF=      0
                NMic=       0 NMicF=      0.
                    Isotopes and Nuclear Properties:
 (Nuclear quadrupole moments (NQMom) in fm**2, nuclear magnetic moments (NMagM)
  in nuclear magnetons)

  Atom         1           2           3           4           5           6           7           8           9          10
 IAtWgt=          12          12          12          12          12          12           1           1           1           1
 AtmWgt=  12.0000000  12.0000000  12.0000000  12.0000000  12.0000000  12.0000000   1.0078250   1.0078250   1.0078250   1.0078250
 NucSpn=           0           0           0           0           0           0           1           1           1           1
 AtZEff=  -0.0000000  -0.0000000  -0.0000000  -0.0000000  -0.0000000  -0.0000000  -0.0000000  -0.0000000  -0.0000000  -0.0000000
 NQMom=    0.0000000   0.0000000   0.0000000   0.0000000   0.0000000   0.0000000   0.0000000   0.0000000   0.0000000   0.0000000
 NMagM=    0.0000000   0.0000000   0.0000000   0.0000000   0.0000000   0.0000000   2.7928460   2.7928460   2.7928460   2.7928460
 AtZNuc=   6.0000000   6.0000000   6.0000000   6.0000000   6.0000000   6.0000000   1.0000000   1.0000000   1.0000000   1.0000000

  Atom        11          12          13          14          15          16          17          18          19          20
 IAtWgt=          14          12           1           1           1          12           1           1           1          12
 AtmWgt=  14.0030740  12.0000000   1.0078250   1.0078250   1.0078250  12.0000000   1.0078250   1.0078250   1.0078250  12.0000000
 NucSpn=           2           0           1           1           1           0           1           1           1           0
 AtZEff=  -0.0000000  -0.0000000  -0.0000000  -0.0000000  -0.0000000  -0.0000000  -0.0000000  -0.0000000  -0.0000000  -0.0000000
 NQMom=    2.0440000   0.0000000   0.0000000   0.0000000   0.0000000   0.0000000   0.0000000   0.0000000   0.0000000   0.0000000
 NMagM=    0.4037610   0.0000000   2.7928460   2.7928460   2.7928460   0.0000000   2.7928460   2.7928460   2.7928460   0.0000000
 AtZNuc=   7.0000000   6.0000000   1.0000000   1.0000000   1.0000000   6.0000000   1.0000000   1.0000000   1.0000000   6.0000000

  Atom        21
 IAtWgt=          14
 AtmWgt=  14.0030740
 NucSpn=           2
 AtZEff=  -0.0000000
 NQMom=    2.0440000
 NMagM=    0.4037610
 AtZNuc=   7.0000000
 Leave Link  101 at Thu Jan 12 15:42:29 2023, MaxMem=   671088640 cpu:               3.5 elap:               0.4
 (Enter /software/gaussian/g16-c01/avx/g16/l103.exe)

 GradGradGradGradGradGradGradGradGradGradGradGradGradGradGradGradGradGrad
 Berny optimization.
 Initialization pass.
                           ----------------------------
                           !    Initial Parameters    !
                           ! (Angstroms and Degrees)  !
 --------------------------                            --------------------------
 ! Name  Definition              Value          Derivative Info.                !
 --------------------------------------------------------------------------------
 ! R1    R(1,2)                  1.3952         estimate D2E/DX2                !
 ! R2    R(1,6)                  1.3948         estimate D2E/DX2                !
 ! R3    R(1,7)                  1.0996         estimate D2E/DX2                !
 ! R4    R(2,3)                  1.3947         estimate D2E/DX2                !
 ! R5    R(2,8)                  1.0997         estimate D2E/DX2                !
 ! R6    R(3,4)                  1.3954         estimate D2E/DX2                !
 ! R7    R(3,11)                 1.47           estimate D2E/DX2                !
 ! R8    R(4,5)                  1.3948         estimate D2E/DX2                !
 ! R9    R(4,9)                  1.0997         estimate D2E/DX2                !
 ! R10   R(5,6)                  1.3951         estimate D2E/DX2                !
 ! R11   R(5,10)                 1.0998         estimate D2E/DX2                !
 ! R12   R(6,20)                 1.54           estimate D2E/DX2                !
 ! R13   R(11,12)                1.47           estimate D2E/DX2                !
 ! R14   R(11,16)                1.47           estimate D2E/DX2                !
 ! R15   R(12,13)                1.07           estimate D2E/DX2                !
 ! R16   R(12,14)                1.07           estimate D2E/DX2                !
 ! R17   R(12,15)                1.07           estimate D2E/DX2                !
 ! R18   R(16,17)                1.07           estimate D2E/DX2                !
 ! R19   R(16,18)                1.07           estimate D2E/DX2                !
 ! R20   R(16,19)                1.07           estimate D2E/DX2                !
 ! R21   R(20,21)                1.2936         estimate D2E/DX2                !
 ! A1    A(2,1,6)              119.9985         estimate D2E/DX2                !
 ! A2    A(2,1,7)              119.9972         estimate D2E/DX2                !
 ! A3    A(6,1,7)              120.0043         estimate D2E/DX2                !
 ! A4    A(1,2,3)              120.0086         estimate D2E/DX2                !
 ! A5    A(1,2,8)              119.9808         estimate D2E/DX2                !
 ! A6    A(3,2,8)              120.0106         estimate D2E/DX2                !
 ! A7    A(2,3,4)              119.9942         estimate D2E/DX2                !
 ! A8    A(2,3,11)             120.0128         estimate D2E/DX2                !
 ! A9    A(4,3,11)             119.993          estimate D2E/DX2                !
 ! A10   A(3,4,5)              119.994          estimate D2E/DX2                !
 ! A11   A(3,4,9)              119.9811         estimate D2E/DX2                !
 ! A12   A(5,4,9)              120.0249         estimate D2E/DX2                !
 ! A13   A(4,5,6)              120.0047         estimate D2E/DX2                !
 ! A14   A(4,5,10)             120.0113         estimate D2E/DX2                !
 ! A15   A(6,5,10)             119.984          estimate D2E/DX2                !
 ! A16   A(1,6,5)              120.0            estimate D2E/DX2                !
 ! A17   A(1,6,20)             120.008          estimate D2E/DX2                !
 ! A18   A(5,6,20)             119.992          estimate D2E/DX2                !
 ! A19   A(3,11,12)            109.4712         estimate D2E/DX2                !
 ! A20   A(3,11,16)            109.4712         estimate D2E/DX2                !
 ! A21   A(12,11,16)           109.4713         estimate D2E/DX2                !
 ! A22   A(11,12,13)           109.4712         estimate D2E/DX2                !
 ! A23   A(11,12,14)           109.4712         estimate D2E/DX2                !
 ! A24   A(11,12,15)           109.4712         estimate D2E/DX2                !
 ! A25   A(13,12,14)           109.4713         estimate D2E/DX2                !
 ! A26   A(13,12,15)           109.4712         estimate D2E/DX2                !
 ! A27   A(14,12,15)           109.4712         estimate D2E/DX2                !
 ! A28   A(11,16,17)           109.4712         estimate D2E/DX2                !
 ! A29   A(11,16,18)           109.4712         estimate D2E/DX2                !
 ! A30   A(11,16,19)           109.4712         estimate D2E/DX2                !
 ! A31   A(17,16,18)           109.4713         estimate D2E/DX2                !
 ! A32   A(17,16,19)           109.4712         estimate D2E/DX2                !
 ! A33   A(18,16,19)           109.4712         estimate D2E/DX2                !
 ! A34   L(6,20,21,10,-1)      179.9733         estimate D2E/DX2                !
 ! A35   L(6,20,21,10,-2)      180.0001         estimate D2E/DX2                !
 ! D1    D(6,1,2,3)              0.0323         estimate D2E/DX2                !
 ! D2    D(6,1,2,8)            179.9532         estimate D2E/DX2                !
 ! D3    D(7,1,2,3)           -179.9729         estimate D2E/DX2                !
 ! D4    D(7,1,2,8)             -0.052          estimate D2E/DX2                !
 ! D5    D(2,1,6,5)              0.0149         estimate D2E/DX2                !
 ! D6    D(2,1,6,20)           179.9892         estimate D2E/DX2                !
 ! D7    D(7,1,6,5)           -179.9798         estimate D2E/DX2                !
 ! D8    D(7,1,6,20)            -0.0056         estimate D2E/DX2                !
 ! D9    D(1,2,3,4)             -0.0568         estimate D2E/DX2                !
 ! D10   D(1,2,3,11)           179.9619         estimate D2E/DX2                !
 ! D11   D(8,2,3,4)           -179.9777         estimate D2E/DX2                !
 ! D12   D(8,2,3,11)             0.041          estimate D2E/DX2                !
 ! D13   D(2,3,4,5)              0.0341         estimate D2E/DX2                !
 ! D14   D(2,3,4,9)           -179.9964         estimate D2E/DX2                !
 ! D15   D(11,3,4,5)          -179.9846         estimate D2E/DX2                !
 ! D16   D(11,3,4,9)            -0.0151         estimate D2E/DX2                !
 ! D17   D(2,3,11,12)           59.9945         estimate D2E/DX2                !
 ! D18   D(2,3,11,16)          -60.0055         estimate D2E/DX2                !
 ! D19   D(4,3,11,12)         -119.9868         estimate D2E/DX2                !
 ! D20   D(4,3,11,16)          120.0132         estimate D2E/DX2                !
 ! D21   D(3,4,5,6)              0.0131         estimate D2E/DX2                !
 ! D22   D(3,4,5,10)          -179.9995         estimate D2E/DX2                !
 ! D23   D(9,4,5,6)           -179.9563         estimate D2E/DX2                !
 ! D24   D(9,4,5,10)             0.0311         estimate D2E/DX2                !
 ! D25   D(4,5,6,1)             -0.0376         estimate D2E/DX2                !
 ! D26   D(4,5,6,20)           179.9881         estimate D2E/DX2                !
 ! D27   D(10,5,6,1)           179.975          estimate D2E/DX2                !
 ! D28   D(10,5,6,20)            0.0007         estimate D2E/DX2                !
 ! D29   D(3,11,12,13)         162.9355         estimate D2E/DX2                !
 ! D30   D(3,11,12,14)         -77.0644         estimate D2E/DX2                !
 ! D31   D(3,11,12,15)          42.9355         estimate D2E/DX2                !
 ! D32   D(16,11,12,13)        -77.0645         estimate D2E/DX2                !
 ! D33   D(16,11,12,14)         42.9355         estimate D2E/DX2                !
 ! D34   D(16,11,12,15)        162.9355         estimate D2E/DX2                !
 ! D35   D(3,11,16,17)        -168.1307         estimate D2E/DX2                !
 ! D36   D(3,11,16,18)         -48.1307         estimate D2E/DX2                !
 ! D37   D(3,11,16,19)          71.8693         estimate D2E/DX2                !
 ! D38   D(12,11,16,17)         71.8693         estimate D2E/DX2                !
 ! D39   D(12,11,16,18)       -168.1306         estimate D2E/DX2                !
 ! D40   D(12,11,16,19)        -48.1307         estimate D2E/DX2                !
 --------------------------------------------------------------------------------
 Trust Radius=3.00D-01 FncErr=1.00D-07 GrdErr=1.00D-06 EigMax=2.50D+02 EigMin=1.00D-04
 Number of steps in this run=    106 maximum allowed number of steps=    126.
 GradGradGradGradGradGradGradGradGradGradGradGradGradGradGradGradGradGrad

 Leave Link  103 at Thu Jan 12 15:42:29 2023, MaxMem=   671088640 cpu:               0.6 elap:               0.1
 (Enter /software/gaussian/g16-c01/avx/g16/l202.exe)
                          Input orientation:                          
 ---------------------------------------------------------------------
 Center     Atomic      Atomic             Coordinates (Angstroms)
 Number     Number       Type             X           Y           Z
 ---------------------------------------------------------------------
      1          6           0        0.147232    0.312132    0.000000
      2          6           0        1.542392    0.312132    0.000000
      3          6           0        2.239930    1.519883    0.000000
      4          6           0        1.542276    2.728392   -0.001199
      5          6           0        0.147451    2.728314   -0.001678
      6          6           0       -0.550150    1.520108   -0.000682
      7          1           0       -0.402527   -0.640185    0.000450
      8          1           0        2.091900   -0.640381    0.001315
      9          1           0        2.092476    3.680535   -0.001258
     10          1           0       -0.402671    3.680595   -0.002631
     11          7           0        3.709930    1.519990    0.000848
     12          6           0        4.200672    0.826546   -1.198823
     13          1           0        5.228874    1.075520   -1.359173
     14          1           0        4.106648   -0.230655   -1.063228
     15          1           0        3.623699    1.130021   -2.047295
     16          6           0        4.199287    0.827576    1.201677
     17          1           0        5.248876    1.003798    1.312179
     18          1           0        3.682849    1.198136    2.062419
     19          1           0        4.022337   -0.223208    1.104507
     20          6           0       -2.090150    1.520364   -0.000934
     21          7           0       -3.383750    1.521183   -0.001145
 ---------------------------------------------------------------------
                    Distance matrix (angstroms):
                    1          2          3          4          5
     1  C    0.000000
     2  C    1.395160   0.000000
     3  C    2.416205   1.394712   0.000000
     4  C    2.790065   2.416260   1.395427   0.000000
     5  C    2.416183   2.789946   2.416356   1.394825   0.000000
     6  C    1.394829   2.416183   2.790080   2.416236   1.395138
     7  H    1.099610   2.165553   3.412986   3.889675   3.413102
     8  H    2.165414   1.099655   2.165330   3.413316   3.889601
     9  H    3.889745   3.413024   2.165678   1.099680   2.165606
    10  H    3.413055   3.889707   3.413506   2.165528   1.099761
    11  N    3.761879   2.481359   1.470000   2.481726   3.761822
    12  C    4.258188   2.961123   2.400500   3.481147   4.634487
    13  H    5.315373   4.002532   3.313396   4.262286   5.513200
    14  H    4.135462   2.828512   2.771186   4.057076   5.055455
    15  H    4.116575   3.031864   2.501645   3.327705   4.338594
    16  C    4.257800   2.961217   2.400500   3.481339   4.634463
    17  H    5.312907   3.992272   3.322937   4.293957   5.542987
    18  H    4.187978   3.101633   2.537539   3.343987   4.370466
    19  H    4.064845   2.767066   2.726770   4.010640   4.994984
    20  C    2.542775   3.828209   4.330080   3.828035   2.542833
    21  N    3.732243   5.072345   5.623680   5.071793   3.731828
                    6          7          8          9         10
     6  C    0.000000
     7  H    2.165331   0.000000
     8  H    3.412938   2.494427   0.000000
     9  H    3.413344   4.989355   4.320917   0.000000
    10  H    2.165516   4.320781   4.989362   2.495147   0.000000
    11  N    4.260080   4.645283   2.699115   2.698910   4.645612
    12  C    4.948421   4.977850   2.835335   3.744850   5.546822
    13  H    5.953173   6.041928   3.825683   4.297327   6.351450
    14  H    5.087233   4.650998   2.315240   4.525713   6.062730
    15  H    4.664956   4.851535   3.110874   3.610545   5.186303
    16  C    4.947972   4.977345   2.834934   3.745008   5.546900
    17  H    5.968155   6.030063   3.793176   4.341992   6.390145
    18  H    4.719992   4.931677   3.187383   3.598659   5.207543
    19  H    5.016795   4.579545   2.262223   4.492915   6.003843
    20  C    1.540000   2.741541   4.707267   4.707515   2.741201
    21  N    2.833600   3.682283   5.886859   5.886582   3.681018
                   11         12         13         14         15
    11  N    0.000000
    12  C    1.470000   0.000000
    13  H    2.086720   1.070000   0.000000
    14  H    2.086720   1.070000   1.747303   0.000000
    15  H    2.086720   1.070000   1.747303   1.747303   0.000000
    16  C    1.470000   2.400500   2.771187   2.501646   3.313397
    17  H    2.086720   2.726771   2.672389   2.910518   3.734059
    18  H    2.086720   3.322938   3.756663   3.462762   4.110704
    19  H    2.086720   2.537541   3.035151   2.169387   3.453114
    20  C    5.800080   6.441332   7.457265   6.526472   6.081779
    21  N    7.093680   7.709760   8.730414   7.765502   7.310546
                   16         17         18         19         20
    16  C    0.000000
    17  H    1.070000   0.000000
    18  H    1.070000   1.747303   0.000000
    19  H    1.070000   1.747303   1.747303   0.000000
    20  C    6.440749   7.473447   6.139118   6.451708   0.000000
    21  N    7.709107   8.747270   7.368817   7.688660   1.293600
                   21
    21  N    0.000000
 Stoichiometry    C9H10N2
 Framework group  C1[X(C9H10N2)]
 Deg. of freedom    57
 Full point group                 C1      NOp   1
 Largest Abelian subgroup         C1      NOp   1
 Largest concise Abelian subgroup C1      NOp   1
                         Standard orientation:                         
 ---------------------------------------------------------------------
 Center     Atomic      Atomic             Coordinates (Angstroms)
 Number     Number       Type             X           Y           Z
 ---------------------------------------------------------------------
      1          6           0       -1.028481   -1.139028   -0.000623
      2          6           0        0.360259   -1.005347   -0.000990
      3          6           0        0.938864    0.263683   -0.000030
      4          6           0        0.128624    1.399785    0.000100
      5          6           0       -1.259776    1.266059   -0.000012
      6          6           0       -1.838400   -0.003431    0.000023
      7          1           0       -1.484462   -2.139640   -0.000931
      8          1           0        0.998507   -1.900826   -0.000722
      9          1           0        0.585060    2.400265    0.000798
     10          1           0       -1.898612    2.161247    0.000082
     11          7           0        2.402090    0.404641    0.000431
     12          6           0        2.956595   -0.237490   -1.200025
     13          1           0        3.956154    0.109006   -1.360410
     14          1           0        2.964350   -1.298959   -1.065407
     15          1           0        2.352900    0.010083   -2.048058
     16          6           0        2.955965   -0.238800    1.200475
     17          1           0        3.983878    0.037078    1.310868
     18          1           0        2.406700    0.079781    2.061703
     19          1           0        2.880478   -1.301614    1.102356
     20          6           0       -3.371339   -0.150735    0.000176
     21          7           0       -4.659065   -0.273869    0.000307
 ---------------------------------------------------------------------
 Rotational constants (GHZ):           3.4288074           0.5431914           0.5158625
 Leave Link  202 at Thu Jan 12 15:42:29 2023, MaxMem=   671088640 cpu:               0.3 elap:               0.1
 (Enter /software/gaussian/g16-c01/avx/g16/l301.exe)
 Standard basis: 3-21G (6D, 7F)
 Ernie: Thresh=  0.10000D-02 Tol=  0.10000D-05 Strict=F.
 There are   119 symmetry adapted cartesian basis functions of A   symmetry.
 There are   119 symmetry adapted basis functions of A   symmetry.
   119 basis functions,   195 primitive gaussians,   119 cartesian basis functions
    39 alpha electrons       39 beta electrons
       nuclear repulsion energy       542.2316950909 Hartrees.
 IExCor= 1009 DFT=T Ex=PBE Corr=PBE ExCW=0 ScaHFX=  0.000000
 ScaDFX=  1.000000  1.000000  1.000000  1.000000 ScalE2=  1.000000  1.000000
 IRadAn=      5 IRanWt=     -1 IRanGd=            0 ICorTp=0 IEmpDi=  4
 NAtoms=   21 NActive=   21 NUniq=   21 SFac= 1.00D+00 NAtFMM=   60 NAOKFM=F Big=F
 Integral buffers will be    131072 words long.
 Raffenetti 2 integral format.
 Two-electron integral symmetry is turned on.
 Leave Link  301 at Thu Jan 12 15:42:30 2023, MaxMem=   671088640 cpu:               1.8 elap:               0.3
 (Enter /software/gaussian/g16-c01/avx/g16/l302.exe)
 NPDir=0 NMtPBC=     1 NCelOv=     1 NCel=       1 NClECP=     1 NCelD=      1
         NCelK=      1 NCelE2=     1 NClLst=     1 CellRange=     0.0.
 One-electron integrals computed using PRISM.
 One-electron integral symmetry used in STVInt
 NBasis=   119 RedAO= T EigKep=  1.45D-03  NBF=   119
 NBsUse=   119 1.00D-06 EigRej= -1.00D+00 NBFU=   119
 Precomputing XC quadrature grid using
 IXCGrd= 4 IRadAn=           5 IRanWt=          -1 IRanGd=           0 AccXCQ= 0.00D+00.
 Generated NRdTot=       0 NPtTot=           0 NUsed=           0 NTot=          32
 NSgBfM=   118   118   118   118   118 MxSgAt=    21 MxSgA2=    21.
 Leave Link  302 at Thu Jan 12 15:42:30 2023, MaxMem=   671088640 cpu:               4.1 elap:               0.4
 (Enter /software/gaussian/g16-c01/avx/g16/l303.exe)
 DipDrv:  MaxL=1.
 Leave Link  303 at Thu Jan 12 15:42:30 2023, MaxMem=   671088640 cpu:               1.6 elap:               0.2
 (Enter /software/gaussian/g16-c01/avx/g16/l401.exe)
 ExpMin= 1.83D-01 ExpMax= 2.43D+02 ExpMxC= 2.43D+02 IAcc=3 IRadAn=         5 AccDes= 0.00D+00
 Harris functional with IExCor= 1009 and IRadAn=       5 diagonalized for initial guess.
 HarFok:  IExCor= 1009 AccDes= 0.00D+00 IRadAn=         5 IDoV= 1 UseB2=F ITyADJ=14
 ICtDFT=  3500011 ScaDFX=  1.000000  1.000000  1.000000  1.000000
 FoFCou: FMM=F IPFlag=           0 FMFlag=      100000 FMFlg1=           0
         NFxFlg=           0 DoJE=T BraDBF=F KetDBF=T FulRan=T
         wScrn=  0.000000 ICntrl=       500 IOpCl=  0 I1Cent=   200000004 NGrid=           0
         NMat0=    1 NMatS0=      1 NMatT0=    0 NMatD0=    1 NMtDS0=    0 NMtDT0=    0
 Petite list used in FoFCou.
 Harris En= -455.404399901499    
 JPrj=0 DoOrth=F DoCkMO=F.
 Leave Link  401 at Thu Jan 12 15:42:31 2023, MaxMem=   671088640 cpu:               9.3 elap:               0.9
 (Enter /software/gaussian/g16-c01/avx/g16/l502.exe)
 Integral symmetry usage will be decided dynamically.
 Closed shell SCF:
 Using DIIS extrapolation, IDIIS=  1040.
 NGot=   671088640 LenX=   671056704 LenY=   671042102
 Requested convergence on RMS density matrix=1.00D-08 within 128 cycles.
 Requested convergence on MAX density matrix=1.00D-06.
 Requested convergence on             energy=1.00D-06.
 No special actions if energy rises.
 Fock matrices will be formed incrementally for  20 cycles.
 Integral accuracy reduced to 1.0D-05 until final iterations.

 Cycle   1  Pass 0  IDiag  1:
 FoFJK:  IHMeth= 1 ICntrl=     500 DoSepK=F KAlg= 0 I1Cent=           0 FoldK=F
 IRaf= 870000000 NMat=       1 IRICut=       1 DoRegI=T DoRafI=F ISym2E= 0 IDoP0=0 IntGTp=1.
 FoFCou: FMM=F IPFlag=           0 FMFlag=      100000 FMFlg1=           0
         NFxFlg=           0 DoJE=T BraDBF=F KetDBF=F FulRan=T
         wScrn=  0.000000 ICntrl=       500 IOpCl=  0 I1Cent=           0 NGrid=           0
         NMat0=    1 NMatS0=      1 NMatT0=    0 NMatD0=    1 NMtDS0=    0 NMtDT0=    0
 Symmetry not used in FoFCou.
 E= -455.180160848431    
 DIIS: error= 2.99D-02 at cycle   1 NSaved=   1.
 NSaved= 1 IEnMin= 1 EnMin= -455.180160848431     IErMin= 1 ErrMin= 2.99D-02
 ErrMax= 2.99D-02  0.00D+00 EMaxC= 1.00D-01 BMatC= 1.23D-01 BMatP= 1.23D-01
 IDIUse=3 WtCom= 7.01D-01 WtEn= 2.99D-01
 Coeff-Com:  0.100D+01
 Coeff-En:   0.100D+01
 Coeff:      0.100D+01
 Gap=     0.070 Goal=   None    Shift=    0.000
 GapD=    0.070 DampG=0.500 DampE=0.500 DampFc=0.2500 IDamp=-1.
 Damping current iteration by 2.50D-01
 RMSDP=8.91D-03 MaxDP=1.89D-01              OVMax= 2.03D-01

 Cycle   2  Pass 0  IDiag  1:
 RMSU=  2.22D-03    CP:  9.96D-01
 E= -455.222895731864     Delta-E=       -0.042734883433 Rises=F Damp=T
 DIIS: error= 1.44D-02 at cycle   2 NSaved=   2.
 NSaved= 2 IEnMin= 2 EnMin= -455.222895731864     IErMin= 2 ErrMin= 1.44D-02
 ErrMax= 1.44D-02  0.00D+00 EMaxC= 1.00D-01 BMatC= 2.59D-02 BMatP= 1.23D-01
 IDIUse=3 WtCom= 8.56D-01 WtEn= 1.44D-01
 Coeff-Com: -0.253D+00 0.125D+01
 Coeff-En:   0.220D-02 0.998D+00
 Coeff:     -0.216D+00 0.122D+01
 Gap=     0.082 Goal=   None    Shift=    0.000
 RMSDP=3.87D-03 MaxDP=5.69D-02 DE=-4.27D-02 OVMax= 3.12D-01

 Cycle   3  Pass 0  IDiag  1:
 RMSU=  3.67D-03    CP:  9.92D-01  1.55D+00
 E= -455.161824111899     Delta-E=        0.061071619965 Rises=F Damp=F
 DIIS: error= 6.38D-02 at cycle   3 NSaved=   3.
 NSaved= 3 IEnMin= 2 EnMin= -455.222895731864     IErMin= 2 ErrMin= 1.44D-02
 ErrMax= 6.38D-02  0.00D+00 EMaxC= 1.00D-01 BMatC= 1.62D-01 BMatP= 2.59D-02
 IDIUse=2 WtCom= 0.00D+00 WtEn= 1.00D+00
 Coeff-En:   0.000D+00 0.666D+00 0.334D+00
 Coeff:      0.000D+00 0.666D+00 0.334D+00
 Gap=     0.093 Goal=   None    Shift=    0.000
 RMSDP=5.23D-03 MaxDP=1.09D-01 DE= 6.11D-02 OVMax= 2.97D-01

 Cycle   4  Pass 0  IDiag  1:
 RMSU=  1.58D-03    CP:  9.98D-01  2.54D+00 -2.21D-01
 E= -455.118587028824     Delta-E=        0.043237083075 Rises=F Damp=F
 DIIS: error= 7.44D-02 at cycle   4 NSaved=   4.
 NSaved= 4 IEnMin= 2 EnMin= -455.222895731864     IErMin= 2 ErrMin= 1.44D-02
 ErrMax= 7.44D-02  0.00D+00 EMaxC= 1.00D-01 BMatC= 2.07D-01 BMatP= 2.59D-02
 IDIUse=2 WtCom= 0.00D+00 WtEn= 1.00D+00
 EnCoef did     2 forward-backward iterations
 Coeff-En:   0.800D-01 0.000D+00 0.487D+00 0.433D+00
 Coeff:      0.800D-01 0.000D+00 0.487D+00 0.433D+00
 Gap=     0.103 Goal=   None    Shift=    0.000
 RMSDP=3.23D-03 MaxDP=8.15D-02 DE= 4.32D-02 OVMax= 1.64D-01

 Cycle   5  Pass 0  IDiag  1:
 RMSU=  4.57D-04    CP:  1.00D+00  1.36D+00  2.64D-01  6.98D-01
 E= -455.308655798553     Delta-E=       -0.190068769729 Rises=F Damp=F
 DIIS: error= 8.26D-03 at cycle   5 NSaved=   5.
 NSaved= 5 IEnMin= 5 EnMin= -455.308655798553     IErMin= 5 ErrMin= 8.26D-03
 ErrMax= 8.26D-03  0.00D+00 EMaxC= 1.00D-01 BMatC= 6.31D-03 BMatP= 2.59D-02
 IDIUse=3 WtCom= 9.17D-01 WtEn= 8.26D-02
 Coeff-Com: -0.354D+00 0.522D+00 0.138D+00-0.355D-01 0.730D+00
 Coeff-En:   0.000D+00 0.000D+00 0.000D+00 0.000D+00 0.100D+01
 Coeff:     -0.325D+00 0.479D+00 0.127D+00-0.326D-01 0.752D+00
 Gap=     0.102 Goal=   None    Shift=    0.000
 RMSDP=8.43D-04 MaxDP=1.56D-02 DE=-1.90D-01 OVMax= 1.65D-02

 Cycle   6  Pass 0  IDiag  1:
 RMSU=  2.78D-04    CP:  9.98D-01  1.64D+00  3.46D-01  5.00D-01  6.03D-01
 E= -455.314866411917     Delta-E=       -0.006210613364 Rises=F Damp=F
 DIIS: error= 2.28D-03 at cycle   6 NSaved=   6.
 NSaved= 6 IEnMin= 6 EnMin= -455.314866411917     IErMin= 6 ErrMin= 2.28D-03
 ErrMax= 2.28D-03  0.00D+00 EMaxC= 1.00D-01 BMatC= 4.24D-04 BMatP= 6.31D-03
 IDIUse=3 WtCom= 9.77D-01 WtEn= 2.28D-02
 Coeff-Com: -0.251D+00 0.358D+00 0.795D-01-0.455D-01 0.533D+00 0.326D+00
 Coeff-En:   0.000D+00 0.000D+00 0.000D+00 0.000D+00 0.000D+00 0.100D+01
 Coeff:     -0.245D+00 0.350D+00 0.777D-01-0.444D-01 0.521D+00 0.342D+00
 Gap=     0.100 Goal=   None    Shift=    0.000
 RMSDP=1.91D-04 MaxDP=4.09D-03 DE=-6.21D-03 OVMax= 8.75D-03

 Cycle   7  Pass 0  IDiag  1:
 RMSU=  9.08D-05    CP:  9.98D-01  1.63D+00  3.37D-01  4.99D-01  7.79D-01
                    CP:  5.02D-01
 E= -455.315279150157     Delta-E=       -0.000412738241 Rises=F Damp=F
 DIIS: error= 8.91D-04 at cycle   7 NSaved=   7.
 NSaved= 7 IEnMin= 7 EnMin= -455.315279150157     IErMin= 7 ErrMin= 8.91D-04
 ErrMax= 8.91D-04  0.00D+00 EMaxC= 1.00D-01 BMatC= 3.30D-05 BMatP= 4.24D-04
 IDIUse=3 WtCom= 9.91D-01 WtEn= 8.91D-03
 Coeff-Com: -0.105D+00 0.150D+00 0.349D-01-0.244D-01 0.227D+00 0.182D+00
 Coeff-Com:  0.536D+00
 Coeff-En:   0.000D+00 0.000D+00 0.000D+00 0.000D+00 0.000D+00 0.000D+00
 Coeff-En:   0.100D+01
 Coeff:     -0.104D+00 0.148D+00 0.346D-01-0.242D-01 0.225D+00 0.181D+00
 Coeff:      0.540D+00
 Gap=     0.101 Goal=   None    Shift=    0.000
 RMSDP=4.50D-05 MaxDP=8.28D-04 DE=-4.13D-04 OVMax= 1.94D-03

 Cycle   8  Pass 0  IDiag  1:
 RMSU=  2.66D-05    CP:  9.98D-01  1.62D+00  3.40D-01  4.95D-01  7.66D-01
                    CP:  5.64D-01  7.32D-01
 E= -455.315304203175     Delta-E=       -0.000025053018 Rises=F Damp=F
 DIIS: error= 4.20D-04 at cycle   8 NSaved=   8.
 NSaved= 8 IEnMin= 8 EnMin= -455.315304203175     IErMin= 8 ErrMin= 4.20D-04
 ErrMax= 4.20D-04  0.00D+00 EMaxC= 1.00D-01 BMatC= 8.09D-06 BMatP= 3.30D-05
 IDIUse=3 WtCom= 9.96D-01 WtEn= 4.20D-03
 Coeff-Com:  0.463D-02-0.699D-02 0.360D-02-0.259D-02 0.621D-04 0.154D-01
 Coeff-Com:  0.351D+00 0.635D+00
 Coeff-En:   0.000D+00 0.000D+00 0.000D+00 0.000D+00 0.000D+00 0.000D+00
 Coeff-En:   0.000D+00 0.100D+01
 Coeff:      0.461D-02-0.696D-02 0.359D-02-0.258D-02 0.619D-04 0.153D-01
 Coeff:      0.349D+00 0.636D+00
 Gap=     0.100 Goal=   None    Shift=    0.000
 RMSDP=2.13D-05 MaxDP=4.02D-04 DE=-2.51D-05 OVMax= 9.10D-04

 Cycle   9  Pass 0  IDiag  1:
 RMSU=  5.27D-06    CP:  9.98D-01  1.62D+00  3.43D-01  4.94D-01  7.71D-01
                    CP:  5.44D-01  8.11D-01  5.71D-01
 E= -455.315311714207     Delta-E=       -0.000007511032 Rises=F Damp=F
 DIIS: error= 5.17D-05 at cycle   9 NSaved=   9.
 NSaved= 9 IEnMin= 9 EnMin= -455.315311714207     IErMin= 9 ErrMin= 5.17D-05
 ErrMax= 5.17D-05  0.00D+00 EMaxC= 1.00D-01 BMatC= 6.98D-08 BMatP= 8.09D-06
 IDIUse=1 WtCom= 1.00D+00 WtEn= 0.00D+00
 Coeff-Com:  0.265D-02-0.410D-02 0.144D-02-0.124D-02-0.104D-02 0.636D-02
 Coeff-Com:  0.155D+00 0.318D+00 0.523D+00
 Coeff:      0.265D-02-0.410D-02 0.144D-02-0.124D-02-0.104D-02 0.636D-02
 Coeff:      0.155D+00 0.318D+00 0.523D+00
 Gap=     0.101 Goal=   None    Shift=    0.000
 RMSDP=3.29D-06 MaxDP=6.07D-05 DE=-7.51D-06 OVMax= 2.00D-04

 Initial convergence to 1.0D-05 achieved.  Increase integral accuracy.
 Cycle  10  Pass 1  IDiag  1:
 E= -455.315332073094     Delta-E=       -0.000020358886 Rises=F Damp=F
 DIIS: error= 1.41D-05 at cycle   1 NSaved=   1.
 NSaved= 1 IEnMin= 1 EnMin= -455.315332073094     IErMin= 1 ErrMin= 1.41D-05
 ErrMax= 1.41D-05  0.00D+00 EMaxC= 1.00D-01 BMatC= 2.53D-08 BMatP= 2.53D-08
 IDIUse=1 WtCom= 1.00D+00 WtEn= 0.00D+00
 Coeff-Com:  0.100D+01
 Coeff:      0.100D+01
 Gap=     0.101 Goal=   None    Shift=    0.000
 RMSDP=3.29D-06 MaxDP=6.07D-05 DE=-2.04D-05 OVMax= 1.34D-04

 Cycle  11  Pass 1  IDiag  1:
 RMSU=  8.07D-06    CP:  1.00D+00
 E= -455.315331996043     Delta-E=        0.000000077050 Rises=F Damp=F
 DIIS: error= 4.34D-05 at cycle   2 NSaved=   2.
 NSaved= 2 IEnMin= 1 EnMin= -455.315332073094     IErMin= 1 ErrMin= 1.41D-05
 ErrMax= 4.34D-05  0.00D+00 EMaxC= 1.00D-01 BMatC= 1.07D-07 BMatP= 2.53D-08
 IDIUse=1 WtCom= 1.00D+00 WtEn= 0.00D+00
 Coeff-Com:  0.698D+00 0.302D+00
 Coeff:      0.698D+00 0.302D+00
 Gap=     0.101 Goal=   None    Shift=    0.000
 RMSDP=3.14D-06 MaxDP=5.75D-05 DE= 7.71D-08 OVMax= 1.54D-04

 Cycle  12  Pass 1  IDiag  1:
 RMSU=  2.80D-06    CP:  1.00D+00  8.25D-01
 E= -455.315332069805     Delta-E=       -0.000000073762 Rises=F Damp=F
 DIIS: error= 3.10D-05 at cycle   3 NSaved=   3.
 NSaved= 3 IEnMin= 1 EnMin= -455.315332073094     IErMin= 1 ErrMin= 1.41D-05
 ErrMax= 3.10D-05  0.00D+00 EMaxC= 1.00D-01 BMatC= 3.48D-08 BMatP= 2.53D-08
 IDIUse=1 WtCom= 1.00D+00 WtEn= 0.00D+00
 Coeff-Com:  0.414D+00 0.279D+00 0.307D+00
 Coeff:      0.414D+00 0.279D+00 0.307D+00
 Gap=     0.101 Goal=   None    Shift=    0.000
 RMSDP=1.48D-06 MaxDP=3.00D-05 DE=-7.38D-08 OVMax= 8.05D-05

 Cycle  13  Pass 1  IDiag  1:
 RMSU=  1.24D-06    CP:  1.00D+00  8.37D-01  7.15D-01
 E= -455.315332097082     Delta-E=       -0.000000027277 Rises=F Damp=F
 DIIS: error= 7.52D-06 at cycle   4 NSaved=   4.
 NSaved= 4 IEnMin= 4 EnMin= -455.315332097082     IErMin= 4 ErrMin= 7.52D-06
 ErrMax= 7.52D-06  0.00D+00 EMaxC= 1.00D-01 BMatC= 4.09D-09 BMatP= 2.53D-08
 IDIUse=1 WtCom= 1.00D+00 WtEn= 0.00D+00
 Coeff-Com:  0.264D-01 0.102D+00 0.276D+00 0.595D+00
 Coeff:      0.264D-01 0.102D+00 0.276D+00 0.595D+00
 Gap=     0.101 Goal=   None    Shift=    0.000
 RMSDP=5.90D-07 MaxDP=1.32D-05 DE=-2.73D-08 OVMax= 2.96D-05

 Cycle  14  Pass 1  IDiag  1:
 RMSU=  2.98D-07    CP:  1.00D+00  8.50D-01  7.30D-01  6.00D-01
 E= -455.315332100770     Delta-E=       -0.000000003688 Rises=F Damp=F
 DIIS: error= 2.08D-06 at cycle   5 NSaved=   5.
 NSaved= 5 IEnMin= 5 EnMin= -455.315332100770     IErMin= 5 ErrMin= 2.08D-06
 ErrMax= 2.08D-06  0.00D+00 EMaxC= 1.00D-01 BMatC= 3.17D-10 BMatP= 4.09D-09
 IDIUse=1 WtCom= 1.00D+00 WtEn= 0.00D+00
 Coeff-Com:  0.252D-02 0.601D-01 0.177D+00 0.410D+00 0.350D+00
 Coeff:      0.252D-02 0.601D-01 0.177D+00 0.410D+00 0.350D+00
 Gap=     0.101 Goal=   None    Shift=    0.000
 RMSDP=2.04D-07 MaxDP=4.34D-06 DE=-3.69D-09 OVMax= 9.08D-06

 Cycle  15  Pass 1  IDiag  1:
 RMSU=  5.52D-08    CP:  1.00D+00  8.48D-01  7.30D-01  6.30D-01  3.55D-01
 E= -455.315332101136     Delta-E=       -0.000000000366 Rises=F Damp=F
 DIIS: error= 3.32D-07 at cycle   6 NSaved=   6.
 NSaved= 6 IEnMin= 6 EnMin= -455.315332101136     IErMin= 6 ErrMin= 3.32D-07
 ErrMax= 3.32D-07  0.00D+00 EMaxC= 1.00D-01 BMatC= 7.96D-12 BMatP= 3.17D-10
 IDIUse=1 WtCom= 1.00D+00 WtEn= 0.00D+00
 Coeff-Com:  0.280D-03 0.330D-01 0.987D-01 0.230D+00 0.217D+00 0.422D+00
 Coeff:      0.280D-03 0.330D-01 0.987D-01 0.230D+00 0.217D+00 0.422D+00
 Gap=     0.101 Goal=   None    Shift=    0.000
 RMSDP=3.74D-08 MaxDP=7.28D-07 DE=-3.66D-10 OVMax= 1.62D-06

 Cycle  16  Pass 1  IDiag  1:
 RMSU=  1.97D-08    CP:  1.00D+00  8.49D-01  7.28D-01  6.27D-01  3.82D-01
                    CP:  4.64D-01
 E= -455.315332101145     Delta-E=       -0.000000000009 Rises=F Damp=F
 DIIS: error= 8.01D-08 at cycle   7 NSaved=   7.
 NSaved= 7 IEnMin= 7 EnMin= -455.315332101145     IErMin= 7 ErrMin= 8.01D-08
 ErrMax= 8.01D-08  0.00D+00 EMaxC= 1.00D-01 BMatC= 5.64D-13 BMatP= 7.96D-12
 IDIUse=1 WtCom= 1.00D+00 WtEn= 0.00D+00
 Coeff-Com: -0.151D-03 0.905D-02 0.279D-01 0.637D-01 0.656D-01 0.239D+00
 Coeff-Com:  0.594D+00
 Coeff:     -0.151D-03 0.905D-02 0.279D-01 0.637D-01 0.656D-01 0.239D+00
 Coeff:      0.594D+00
 Gap=     0.101 Goal=   None    Shift=    0.000
 RMSDP=9.05D-09 MaxDP=1.82D-07 DE=-8.75D-12 OVMax= 4.56D-07

 SCF Done:  E(RPBE-PBE) =  -455.315332101     A.U. after   16 cycles
            NFock= 16  Conv=0.90D-08     -V/T= 2.0090
 KE= 4.512749246931D+02 PE=-2.140134534759D+03 EE= 6.913125828736D+02
 Leave Link  502 at Thu Jan 12 15:42:38 2023, MaxMem=   671088640 cpu:              76.9 elap:               6.6
 (Enter /software/gaussian/g16-c01/avx/g16/l601.exe)
 Copying SCF densities to generalized density rwf, IOpCl= 0 IROHF=0.

 **********************************************************************

            Population analysis using the SCF Density.

 **********************************************************************

 Orbital symmetries:
       Occupied  (A) (A) (A) (A) (A) (A) (A) (A) (A) (A) (A) (A)
                 (A) (A) (A) (A) (A) (A) (A) (A) (A) (A) (A) (A)
                 (A) (A) (A) (A) (A) (A) (A) (A) (A) (A) (A) (A)
                 (A) (A) (A)
       Virtual   (A) (A) (A) (A) (A) (A) (A) (A) (A) (A) (A) (A)
                 (A) (A) (A) (A) (A) (A) (A) (A) (A) (A) (A) (A)
                 (A) (A) (A) (A) (A) (A) (A) (A) (A) (A) (A) (A)
                 (A) (A) (A) (A) (A) (A) (A) (A) (A) (A) (A) (A)
                 (A) (A) (A) (A) (A) (A) (A) (A) (A) (A) (A) (A)
                 (A) (A) (A) (A) (A) (A) (A) (A) (A) (A) (A) (A)
                 (A) (A) (A) (A) (A) (A) (A) (A)
 The electronic state is 1-A.
 Alpha  occ. eigenvalues --  -13.94744 -13.93425  -9.90525  -9.90300  -9.89290
 Alpha  occ. eigenvalues --   -9.87269  -9.87150  -9.86486  -9.86198  -9.85271
 Alpha  occ. eigenvalues --   -9.85225  -0.87172  -0.81070  -0.79010  -0.70732
 Alpha  occ. eigenvalues --   -0.70407  -0.65424  -0.61059  -0.57755  -0.54916
 Alpha  occ. eigenvalues --   -0.51556  -0.45929  -0.45222  -0.41961  -0.41908
 Alpha  occ. eigenvalues --   -0.40851  -0.39639  -0.38183  -0.36700  -0.35529
 Alpha  occ. eigenvalues --   -0.33524  -0.33374  -0.32611  -0.30111  -0.29135
 Alpha  occ. eigenvalues --   -0.27544  -0.25017  -0.23545  -0.17787
 Alpha virt. eigenvalues --   -0.07732  -0.05044  -0.03309   0.01382   0.04378
 Alpha virt. eigenvalues --    0.07604   0.09901   0.10902   0.11778   0.13323
 Alpha virt. eigenvalues --    0.14300   0.14700   0.15861   0.16086   0.16974
 Alpha virt. eigenvalues --    0.17686   0.20671   0.21635   0.23670   0.27198
 Alpha virt. eigenvalues --    0.29920   0.30755   0.31353   0.46262   0.49123
 Alpha virt. eigenvalues --    0.53272   0.58627   0.61166   0.61345   0.64307
 Alpha virt. eigenvalues --    0.64587   0.64842   0.65160   0.67937   0.69992
 Alpha virt. eigenvalues --    0.70039   0.71598   0.72486   0.73819   0.76972
 Alpha virt. eigenvalues --    0.77322   0.80636   0.81371   0.82052   0.85862
 Alpha virt. eigenvalues --    0.88425   0.88635   0.91167   0.92898   0.95397
 Alpha virt. eigenvalues --    0.96368   0.99256   1.02258   1.03614   1.05477
 Alpha virt. eigenvalues --    1.08446   1.10642   1.11245   1.11899   1.12370
 Alpha virt. eigenvalues --    1.17355   1.18999   1.23098   1.29703   1.33466
 Alpha virt. eigenvalues --    1.39949   1.42034   1.43376   1.45411   1.45947
 Alpha virt. eigenvalues --    1.47960   1.51363   1.62695   1.76505   1.84198
 Alpha virt. eigenvalues --    1.87536   1.89581   2.38660   2.73055   2.79553
          Condensed to atoms (all electrons):
               1          2          3          4          5          6
     1  C    5.187307   0.396311  -0.048782  -0.020024  -0.073243   0.438674
     2  C    0.396311   5.398446   0.298956  -0.121603  -0.015727  -0.083367
     3  C   -0.048782   0.298956   5.197669   0.463333  -0.076060  -0.031059
     4  C   -0.020024  -0.121603   0.463333   5.233308   0.408291  -0.079727
     5  C   -0.073243  -0.015727  -0.076060   0.408291   5.203137   0.432585
     6  C    0.438674  -0.083367  -0.031059  -0.079727   0.432585   5.334502
     7  H    0.385414  -0.031831   0.003256  -0.000161   0.003665  -0.040094
     8  H   -0.039836   0.391879  -0.053047   0.003054  -0.000024   0.004102
     9  H   -0.000446   0.005828  -0.036065   0.369656  -0.036133   0.004259
    10  H    0.003661  -0.000188   0.004214  -0.032599   0.386837  -0.041151
    11  N    0.004295  -0.072353   0.312682  -0.055714   0.003485  -0.000198
    12  C    0.000261  -0.004343  -0.100092   0.000078  -0.000164   0.000017
    13  H    0.000005  -0.000146   0.005258   0.000064  -0.000001  -0.000000
    14  H   -0.000395   0.004624  -0.006623  -0.000428   0.000023  -0.000000
    15  H   -0.000050  -0.000305  -0.003071   0.001174  -0.000054  -0.000003
    16  C    0.000345  -0.004385  -0.100520   0.000118  -0.000165   0.000013
    17  H    0.000005  -0.000148   0.005408   0.000042  -0.000000  -0.000000
    18  H   -0.000024  -0.000520  -0.002458   0.001274  -0.000055  -0.000003
    19  H   -0.000491   0.005609  -0.008313  -0.000466   0.000027  -0.000000
    20  C   -0.060719   0.003840  -0.000106   0.003410  -0.061061   0.167440
    21  N   -0.000068  -0.000001  -0.000000  -0.000000  -0.000064  -0.059792
               7          8          9         10         11         12
     1  C    0.385414  -0.039836  -0.000446   0.003661   0.004295   0.000261
     2  C   -0.031831   0.391879   0.005828  -0.000188  -0.072353  -0.004343
     3  C    0.003256  -0.053047  -0.036065   0.004214   0.312682  -0.100092
     4  C   -0.000161   0.003054   0.369656  -0.032599  -0.055714   0.000078
     5  C    0.003665  -0.000024  -0.036133   0.386837   0.003485  -0.000164
     6  C   -0.040094   0.004102   0.004259  -0.041151  -0.000198   0.000017
     7  H    0.468083  -0.003602   0.000003  -0.000049  -0.000022  -0.000002
     8  H   -0.003602   0.484340  -0.000030   0.000002  -0.009978   0.000526
     9  H    0.000003  -0.000030   0.475599  -0.004372   0.001807   0.000089
    10  H   -0.000049   0.000002  -0.004372   0.466896  -0.000017   0.000001
    11  N   -0.000022  -0.009978   0.001807  -0.000017   6.982697   0.291707
    12  C   -0.000002   0.000526   0.000089   0.000001   0.291707   5.337588
    13  H   -0.000000  -0.000107  -0.000036  -0.000000  -0.033722   0.365467
    14  H    0.000007   0.006668   0.000030  -0.000000  -0.052143   0.318908
    15  H    0.000000   0.000017   0.000020   0.000000  -0.027227   0.366687
    16  C   -0.000002   0.000377   0.000082   0.000001   0.294008  -0.098380
    17  H   -0.000000  -0.000115  -0.000030  -0.000000  -0.032277   0.000750
    18  H   -0.000000  -0.000049  -0.000002   0.000000  -0.027992   0.005378
    19  H    0.000009   0.007670   0.000033  -0.000000  -0.052997  -0.011092
    20  C   -0.004212  -0.000047  -0.000043  -0.004364   0.000000  -0.000000
    21  N   -0.000029   0.000000   0.000000  -0.000029  -0.000000  -0.000000
              13         14         15         16         17         18
     1  C    0.000005  -0.000395  -0.000050   0.000345   0.000005  -0.000024
     2  C   -0.000146   0.004624  -0.000305  -0.004385  -0.000148  -0.000520
     3  C    0.005258  -0.006623  -0.003071  -0.100520   0.005408  -0.002458
     4  C    0.000064  -0.000428   0.001174   0.000118   0.000042   0.001274
     5  C   -0.000001   0.000023  -0.000054  -0.000165  -0.000000  -0.000055
     6  C   -0.000000  -0.000000  -0.000003   0.000013  -0.000000  -0.000003
     7  H   -0.000000   0.000007   0.000000  -0.000002  -0.000000  -0.000000
     8  H   -0.000107   0.006668   0.000017   0.000377  -0.000115  -0.000049
     9  H   -0.000036   0.000030   0.000020   0.000082  -0.000030  -0.000002
    10  H   -0.000000  -0.000000   0.000000   0.000001  -0.000000   0.000000
    11  N   -0.033722  -0.052143  -0.027227   0.294008  -0.032277  -0.027992
    12  C    0.365467   0.318908   0.366687  -0.098380   0.000750   0.005378
    13  H    0.495073  -0.041967  -0.021664   0.001041   0.002748  -0.000048
    14  H   -0.041967   0.602241  -0.031213  -0.011361  -0.002237  -0.000144
    15  H   -0.021664  -0.031213   0.477002   0.005315  -0.000047  -0.000149
    16  C    0.001041  -0.011361   0.005315   5.337368   0.365599   0.366838
    17  H    0.002748  -0.002237  -0.000047   0.365599   0.494000  -0.021238
    18  H   -0.000048  -0.000144  -0.000149   0.366838  -0.021238   0.477672
    19  H   -0.001886   0.023711  -0.000110   0.317531  -0.041211  -0.032782
    20  C   -0.000000   0.000000  -0.000000  -0.000000  -0.000000  -0.000000
    21  N    0.000000  -0.000000   0.000000  -0.000000   0.000000   0.000000
              19         20         21
     1  C   -0.000491  -0.060719  -0.000068
     2  C    0.005609   0.003840  -0.000001
     3  C   -0.008313  -0.000106  -0.000000
     4  C   -0.000466   0.003410  -0.000000
     5  C    0.000027  -0.061061  -0.000064
     6  C   -0.000000   0.167440  -0.059792
     7  H    0.000009  -0.004212  -0.000029
     8  H    0.007670  -0.000047   0.000000
     9  H    0.000033  -0.000043   0.000000
    10  H   -0.000000  -0.004364  -0.000029
    11  N   -0.052997   0.000000  -0.000000
    12  C   -0.011092  -0.000000  -0.000000
    13  H   -0.001886  -0.000000   0.000000
    14  H    0.023711   0.000000  -0.000000
    15  H   -0.000110  -0.000000   0.000000
    16  C    0.317531  -0.000000  -0.000000
    17  H   -0.041211  -0.000000   0.000000
    18  H   -0.032782  -0.000000   0.000000
    19  H    0.603952   0.000000  -0.000000
    20  C    0.000000   5.037544   0.620541
    21  N   -0.000000   0.620541   6.878474
 Mulliken charges:
               1
     1  C   -0.172201
     2  C   -0.170577
     3  C    0.175421
     4  C   -0.173079
     5  C   -0.175300
     6  C   -0.046199
     7  H    0.219567
     8  H    0.208200
     9  H    0.219752
    10  H    0.221155
    11  N   -0.526041
    12  C   -0.473382
    13  H    0.229921
    14  H    0.190300
    15  H    0.233679
    16  C   -0.473822
    17  H    0.228752
    18  H    0.234300
    19  H    0.190807
    20  C    0.297778
    21  N   -0.439032
 Sum of Mulliken charges =  -0.00000
 Mulliken charges with hydrogens summed into heavy atoms:
               1
     1  C    0.047366
     2  C    0.037623
     3  C    0.175421
     4  C    0.046674
     5  C    0.045855
     6  C   -0.046199
    11  N   -0.526041
    12  C    0.180517
    16  C    0.180037
    20  C    0.297778
    21  N   -0.439032
 Electronic spatial extent (au):  <R**2>=           2178.4395
 Charge=             -0.0000 electrons
 Dipole moment (field-independent basis, Debye):
    X=              4.5727    Y=             -0.5130    Z=             -0.0072  Tot=              4.6014
 Quadrupole moment (field-independent basis, Debye-Ang):
   XX=            -82.5705   YY=            -59.8712   ZZ=            -66.0892
   XY=             -4.6653   XZ=              0.0071   YZ=              0.0198
 Traceless Quadrupole moment (field-independent basis, Debye-Ang):
   XX=            -13.0602   YY=              9.6391   ZZ=              3.4211
   XY=             -4.6653   XZ=              0.0071   YZ=              0.0198
 Octapole moment (field-independent basis, Debye-Ang**2):
  XXX=            146.4260  YYY=              1.9113  ZZZ=             -0.0033  XYY=             -5.1662
  XXY=              2.8022  XXZ=              0.0127  XZZ=             11.6013  YZZ=              0.5761
  YYZ=              0.0228  XYZ=             -0.0292
 Hexadecapole moment (field-independent basis, Debye-Ang**3):
 XXXX=          -2933.1444 YYYY=           -304.8636 ZZZZ=           -208.4531 XXXY=            -53.7206
 XXXZ=              0.0376 YYYX=             -4.5790 YYYZ=              0.0048 ZZZX=              0.1045
 ZZZY=              0.3101 XXYY=           -455.0936 XXZZ=           -422.2961 YYZZ=           -101.0741
 XXYZ=             -0.3603 YYXZ=             -0.0338 ZZXY=              2.7155
 N-N= 5.422316950909D+02 E-N=-2.140134538921D+03  KE= 4.512749246931D+02
 No NMR shielding tensors so no spin-rotation constants.
 Leave Link  601 at Thu Jan 12 15:42:38 2023, MaxMem=   671088640 cpu:               2.4 elap:               0.3
 (Enter /software/gaussian/g16-c01/avx/g16/l701.exe)
 ... and contract with generalized density number  0.
 Compute integral first derivatives.
 Leave Link  701 at Thu Jan 12 15:42:39 2023, MaxMem=   671088640 cpu:               4.4 elap:               0.5
 (Enter /software/gaussian/g16-c01/avx/g16/l702.exe)
 L702 exits ... SP integral derivatives will be done elsewhere.
 Leave Link  702 at Thu Jan 12 15:42:39 2023, MaxMem=   671088640 cpu:               0.3 elap:               0.1
 (Enter /software/gaussian/g16-c01/avx/g16/l703.exe)
 Integral derivatives from FoFJK, PRISM(SPDF).
 Compute integral first derivatives, UseDBF=F ICtDFT=           0.
 Calling FoFJK, ICntrl=      2527 FMM=F ISym2X=0 I1Cent= 0 IOpClX= 0 NMat=1 NMatS=1 NMatT=0.
 FoFJK:  IHMeth= 1 ICntrl=    2527 DoSepK=F KAlg= 0 I1Cent=           0 FoldK=F
 IRaf=         0 NMat=       1 IRICut=       1 DoRegI=T DoRafI=F ISym2E= 0 IDoP0=0 IntGTp=1.
 FoFCou: FMM=F IPFlag=           0 FMFlag=      100000 FMFlg1=         800
         NFxFlg=           0 DoJE=F BraDBF=F KetDBF=F FulRan=T
         wScrn=  0.000000 ICntrl=      2527 IOpCl=  0 I1Cent=           0 NGrid=           0
         NMat0=    1 NMatS0=      1 NMatT0=    0 NMatD0=    1 NMtDS0=    0 NMtDT0=    0
 Symmetry not used in FoFCou.
 Leave Link  703 at Thu Jan 12 15:42:41 2023, MaxMem=   671088640 cpu:              16.7 elap:               1.6
 (Enter /software/gaussian/g16-c01/avx/g16/l716.exe)
 Dipole        = 1.79902328D+00-2.01845299D-01-2.82451521D-03
 ***** Axes restored to original set *****
 -------------------------------------------------------------------
 Center     Atomic                   Forces (Hartrees/Bohr)
 Number     Number              X              Y              Z
 -------------------------------------------------------------------
      1        6          -0.003809394   -0.021748622   -0.000066952
      2        6          -0.004415572   -0.009398721    0.000038048
      3        6           0.015518089    0.001542784    0.000495868
      4        6           0.002783339    0.011528771    0.000148386
      5        6          -0.005392011    0.018957991   -0.000020111
      6        6          -0.061120538    0.000613331   -0.000033654
      7        1           0.001298950    0.004550799   -0.000015797
      8        1          -0.003484672    0.003351779   -0.000067095
      9        1          -0.000211635   -0.006343754   -0.000013901
     10        1           0.001889411   -0.004834842    0.000001796
     11        7          -0.017340372    0.018178226    0.000023148
     12        6          -0.001811230    0.011372580    0.007351669
     13        1           0.022907898    0.004258818   -0.003235132
     14        1          -0.000461598   -0.031171373   -0.003191581
     15        1          -0.010123155    0.006869601   -0.017970147
     16        6          -0.002408855    0.012271923   -0.007604457
     17        1           0.023093861    0.003082710    0.002070437
     18        1          -0.009133401    0.008043127    0.018132890
     19        1          -0.001980303   -0.030995394    0.003938958
     20        6          -0.111472267   -0.000033003   -0.000007856
     21        7           0.165673454   -0.000096734    0.000025482
 -------------------------------------------------------------------
 Cartesian Forces:  Max     0.165673454 RMS     0.028209834
 Leave Link  716 at Thu Jan 12 15:42:41 2023, MaxMem=   671088640 cpu:               1.0 elap:               0.2
 (Enter /software/gaussian/g16-c01/avx/g16/l103.exe)

 GradGradGradGradGradGradGradGradGradGradGradGradGradGradGradGradGradGrad
 Berny optimization.
 FormGI is forming the generalized inverse of G from B-inverse, IUseBI=4.
 GSVD:  received Info=                   1 from GESDD.
 Internal  Forces:  Max     0.165673537 RMS     0.019571526
 Search for a local minimum.
 Step number   1 out of a maximum of  106
 All quantities printed in internal units (Hartrees-Bohrs-Radians)
 RMS Force = .19572D-01 SwitMx=.10000D-02 MixMth= 1
 Mixed Optimization -- RFO/linear search
 Second derivative matrix not updated -- first step.
 ITU=  0
     Eigenvalues ---    0.00766   0.00766   0.00766   0.01727   0.02152
     Eigenvalues ---    0.02153   0.02154   0.02155   0.02155   0.02155
     Eigenvalues ---    0.02156   0.02157   0.03099   0.03099   0.03454
     Eigenvalues ---    0.07537   0.07537   0.07537   0.07537   0.16000
     Eigenvalues ---    0.16000   0.16000   0.16000   0.16000   0.16000
     Eigenvalues ---    0.16000   0.16000   0.16000   0.16000   0.16276
     Eigenvalues ---    0.17820   0.22000   0.22982   0.24000   0.25000
     Eigenvalues ---    0.25000   0.28519   0.33709   0.33718   0.33720
     Eigenvalues ---    0.33725   0.35740   0.35740   0.35740   0.37230
     Eigenvalues ---    0.37230   0.37230   0.37230   0.37230   0.37230
     Eigenvalues ---    0.42116   0.42487   0.46412   0.46453   0.46466
     Eigenvalues ---    0.46497   0.69002
 RFO step:  Lambda=-6.18153658D-02 EMin= 7.65814509D-03
 Linear search not attempted -- first point.
 Maximum step size (   0.300) exceeded in Quadratic search.
    -- Step size scaled by   0.888
 Iteration  1 RMS(Cart)=  0.06186595 RMS(Int)=  0.00119608
 Iteration  2 RMS(Cart)=  0.00166828 RMS(Int)=  0.00013674
 Iteration  3 RMS(Cart)=  0.00000323 RMS(Int)=  0.00013673
 Iteration  4 RMS(Cart)=  0.00000000 RMS(Int)=  0.00013673
 ITry= 1 IFail=0 DXMaxC= 2.51D-01 DCOld= 1.00D+10 DXMaxT= 3.00D-01 DXLimC= 3.00D+00 Rises=F
 Variable       Old X    -DE/DX   Delta X   Delta X   Delta X     New X
                                 (Linear)    (Quad)   (Total)
    R1        2.63647   0.00574   0.00000   0.00981   0.00981   2.64628
    R2        2.63584   0.01247   0.00000   0.02123   0.02123   2.65708
    R3        2.07796  -0.00459   0.00000  -0.01022  -0.01022   2.06775
    R4        2.63562   0.01610   0.00000   0.02704   0.02705   2.66267
    R5        2.07805  -0.00464   0.00000  -0.01034  -0.01034   2.06771
    R6        2.63697   0.00860   0.00000   0.01432   0.01432   2.65129
    R7        2.77790   0.00274   0.00000   0.00581   0.00581   2.78371
    R8        2.63584   0.00719   0.00000   0.01201   0.01201   2.64784
    R9        2.07809  -0.00560   0.00000  -0.01246  -0.01246   2.06563
   R10        2.63643   0.01228   0.00000   0.02081   0.02081   2.65724
   R11        2.07825  -0.00513   0.00000  -0.01142  -0.01142   2.06682
   R12        2.91018  -0.05420   0.00000  -0.13872  -0.13872   2.77146
   R13        2.77790   0.02151   0.00000   0.04557   0.04557   2.82346
   R14        2.77790   0.02028   0.00000   0.04296   0.04296   2.82085
   R15        2.02201   0.02349   0.00000   0.04805   0.04805   2.07006
   R16        2.02201   0.03043   0.00000   0.06226   0.06226   2.08427
   R17        2.02201   0.02166   0.00000   0.04430   0.04430   2.06631
   R18        2.02201   0.02337   0.00000   0.04782   0.04782   2.06983
   R19        2.02201   0.02178   0.00000   0.04456   0.04456   2.06656
   R20        2.02201   0.03041   0.00000   0.06221   0.06221   2.08422
   R21        2.44455  -0.16567   0.00000  -0.19570  -0.19570   2.24885
    A1        2.09437  -0.00363   0.00000  -0.01077  -0.01077   2.08360
    A2        2.09435   0.00301   0.00000   0.01017   0.01017   2.10452
    A3        2.09447   0.00062   0.00000   0.00060   0.00060   2.09507
    A4        2.09455   0.00284   0.00000   0.00905   0.00906   2.10360
    A5        2.09406  -0.00282   0.00000  -0.01011  -0.01012   2.08394
    A6        2.09458  -0.00003   0.00000   0.00107   0.00106   2.09564
    A7        2.09429  -0.00264   0.00000  -0.00802  -0.00801   2.08628
    A8        2.09462   0.01150   0.00000   0.03299   0.03299   2.12761
    A9        2.09427  -0.00885   0.00000  -0.02498  -0.02498   2.06929
   A10        2.09429   0.00272   0.00000   0.00798   0.00798   2.10227
   A11        2.09407  -0.00447   0.00000  -0.01643  -0.01643   2.07763
   A12        2.09483   0.00175   0.00000   0.00846   0.00845   2.10328
   A13        2.09448  -0.00246   0.00000  -0.00778  -0.00778   2.08669
   A14        2.09459   0.00204   0.00000   0.00714   0.00715   2.10174
   A15        2.09411   0.00042   0.00000   0.00064   0.00064   2.09475
   A16        2.09440   0.00316   0.00000   0.00954   0.00954   2.10393
   A17        2.09453  -0.00174   0.00000  -0.00523  -0.00523   2.08930
   A18        2.09426  -0.00142   0.00000  -0.00431  -0.00431   2.08995
   A19        1.91063   0.00229   0.00000   0.02090   0.02021   1.93085
   A20        1.91063   0.00208   0.00000   0.02007   0.01936   1.93000
   A21        1.91063   0.00216   0.00000   0.01920   0.01852   1.92916
   A22        1.91063  -0.00162   0.00000  -0.00797  -0.00804   1.90259
   A23        1.91063   0.01115   0.00000   0.04683   0.04670   1.95734
   A24        1.91063  -0.00064   0.00000  -0.00329  -0.00343   1.90720
   A25        1.91063  -0.00405   0.00000  -0.01481  -0.01487   1.89577
   A26        1.91063  -0.00110   0.00000  -0.00884  -0.00892   1.90172
   A27        1.91063  -0.00373   0.00000  -0.01192  -0.01212   1.89852
   A28        1.91063  -0.00217   0.00000  -0.01044  -0.01049   1.90014
   A29        1.91063  -0.00067   0.00000  -0.00322  -0.00338   1.90725
   A30        1.91063   0.01129   0.00000   0.04750   0.04738   1.95802
   A31        1.91063  -0.00091   0.00000  -0.00826  -0.00835   1.90228
   A32        1.91063  -0.00401   0.00000  -0.01497  -0.01498   1.89566
   A33        1.91063  -0.00353   0.00000  -0.01062  -0.01084   1.89980
   A34        3.14113  -0.00002   0.00000  -0.00021  -0.00021   3.14091
   A35        3.14159  -0.00000   0.00000  -0.00004  -0.00004   3.14155
    D1        0.00056  -0.00004   0.00000  -0.00041  -0.00041   0.00016
    D2        3.14078   0.00004   0.00000   0.00044   0.00044   3.14121
    D3       -3.14112  -0.00004   0.00000  -0.00042  -0.00042  -3.14154
    D4       -0.00091   0.00004   0.00000   0.00042   0.00042  -0.00049
    D5        0.00026   0.00001   0.00000   0.00014   0.00014   0.00040
    D6        3.14140   0.00001   0.00000   0.00012   0.00012   3.14152
    D7       -3.14124   0.00002   0.00000   0.00016   0.00016  -3.14108
    D8       -0.00010   0.00001   0.00000   0.00013   0.00013   0.00004
    D9       -0.00099   0.00004   0.00000   0.00040   0.00040  -0.00059
   D10        3.14093   0.00008   0.00000   0.00091   0.00092  -3.14134
   D11       -3.14120  -0.00004   0.00000  -0.00043  -0.00044   3.14154
   D12        0.00072   0.00001   0.00000   0.00007   0.00008   0.00079
   D13        0.00060  -0.00001   0.00000  -0.00013  -0.00013   0.00047
   D14       -3.14153   0.00001   0.00000   0.00012   0.00011  -3.14142
   D15       -3.14132  -0.00006   0.00000  -0.00062  -0.00061   3.14125
   D16       -0.00026  -0.00003   0.00000  -0.00038  -0.00038  -0.00064
   D17        1.04710   0.00246   0.00000   0.02181   0.02192   1.06903
   D18       -1.04729  -0.00286   0.00000  -0.02679  -0.02691  -1.07420
   D19       -2.09416   0.00251   0.00000   0.02231   0.02243  -2.07173
   D20        2.09463  -0.00281   0.00000  -0.02628  -0.02640   2.06823
   D21        0.00023  -0.00001   0.00000  -0.00015  -0.00015   0.00008
   D22       -3.14158   0.00001   0.00000   0.00007   0.00007  -3.14152
   D23       -3.14083  -0.00004   0.00000  -0.00038  -0.00038  -3.14121
   D24        0.00054  -0.00002   0.00000  -0.00017  -0.00017   0.00037
   D25       -0.00066   0.00001   0.00000   0.00014   0.00014  -0.00052
   D26        3.14138   0.00002   0.00000   0.00016   0.00016   3.14154
   D27        3.14116  -0.00001   0.00000  -0.00008  -0.00008   3.14108
   D28        0.00001  -0.00001   0.00000  -0.00006  -0.00005  -0.00004
   D29        2.84376  -0.00270   0.00000  -0.01781  -0.01790   2.82586
   D30       -1.34503  -0.00183   0.00000  -0.01216  -0.01231  -1.35734
   D31        0.74937   0.00003   0.00000  -0.00010  -0.00015   0.74922
   D32       -1.34503   0.00257   0.00000   0.03132   0.03142  -1.31361
   D33        0.74937   0.00345   0.00000   0.03697   0.03701   0.78638
   D34        2.84376   0.00531   0.00000   0.04903   0.04917   2.89294
   D35       -2.93443   0.00316   0.00000   0.02328   0.02332  -2.91111
   D36       -0.84004   0.00031   0.00000   0.00480   0.00484  -0.83520
   D37        1.25436   0.00249   0.00000   0.01892   0.01909   1.27344
   D38        1.25436  -0.00224   0.00000  -0.02637  -0.02649   1.22787
   D39       -2.93443  -0.00510   0.00000  -0.04484  -0.04498  -2.97941
   D40       -0.84004  -0.00292   0.00000  -0.03073  -0.03073  -0.87077
         Item               Value     Threshold  Converged?
 Maximum Force            0.165674     0.000450     NO 
 RMS     Force            0.019572     0.000300     NO 
 Maximum Displacement     0.251286     0.001800     NO 
 RMS     Displacement     0.062554     0.001200     NO 
 Predicted change in Energy=-3.368475D-02
 Lowest energy point so far.  Saving SCF results.
 GradGradGradGradGradGradGradGradGradGradGradGradGradGradGradGradGradGrad

 Leave Link  103 at Thu Jan 12 15:42:42 2023, MaxMem=   671088640 cpu:              11.8 elap:               1.2
 (Enter /software/gaussian/g16-c01/avx/g16/l202.exe)
                          Input orientation:                          
 ---------------------------------------------------------------------
 Center     Atomic      Atomic             Coordinates (Angstroms)
 Number     Number       Type             X           Y           Z
 ---------------------------------------------------------------------
      1          6           0        0.082416    0.289997   -0.001085
      2          6           0        1.482690    0.275275   -0.000610
      3          6           0        2.211126    1.481396    0.000462
      4          6           0        1.523773    2.704494    0.000333
      5          6           0        0.122861    2.731787   -0.000285
      6          6           0       -0.594506    1.522389   -0.000677
      7          1           0       -0.484125   -0.646120   -0.001871
      8          1           0        2.009795   -0.683579   -0.000566
      9          1           0        2.096947    3.635251    0.001003
     10          1           0       -0.412461    3.685539   -0.000456
     11          7           0        3.684066    1.501275    0.000672
     12          6           0        4.219663    0.836875   -1.225738
     13          1           0        5.262778    1.139251   -1.368715
     14          1           0        4.178451   -0.262995   -1.154446
     15          1           0        3.635299    1.155487   -2.093279
     16          6           0        4.217575    0.841622    1.228871
     17          1           0        5.283666    1.075113    1.321733
     18          1           0        3.690608    1.229701    2.105007
     19          1           0        4.098641   -0.254434    1.198037
     20          6           0       -2.060906    1.546180   -0.001263
     21          7           0       -3.250775    1.566293   -0.001778
 ---------------------------------------------------------------------
                    Distance matrix (angstroms):
                    1          2          3          4          5
     1  C    0.000000
     2  C    1.400351   0.000000
     3  C    2.439435   1.409025   0.000000
     4  C    2.811994   2.429567   1.403004   0.000000
     5  C    2.442125   2.807772   2.433994   1.401178   0.000000
     6  C    1.406064   2.422816   2.805932   2.425795   1.406150
     7  H    1.094204   2.171941   3.433760   3.906184   3.432009
     8  H    2.159315   1.094185   2.174316   3.422755   3.901954
     9  H    3.905005   3.415663   2.156879   1.093086   2.171006
    10  H    3.431415   3.901474   3.426581   2.170589   1.093715
    11  N    3.799879   2.519749   1.473074   2.472772   3.767803
    12  C    4.349214   3.050796   2.439917   3.501296   4.677201
    13  H    5.424740   4.111841   3.362186   4.278369   5.552254
    14  H    4.291100   2.981308   2.871773   4.145698   5.171906
    15  H    4.212995   3.128540   2.553083   3.352786   4.382073
    16  C    4.349325   3.051552   2.438061   3.498023   4.674423
    17  H    5.423953   4.103140   3.369173   4.305552   5.579087
    18  H    4.282256   3.196789   2.584827   3.361523   4.406510
    19  H    4.226625   2.925841   2.830196   4.101182   5.114716
    20  C    2.484316   3.764607   4.272523   3.767176   2.484854
    21  N    3.569187   4.906365   5.462561   4.908341   3.569285
                    6          7          8          9         10
     6  C    0.000000
     7  H    2.171317   0.000000
     8  H    3.413017   2.494202   0.000000
     9  H    3.421711   4.999207   4.319709   0.000000
    10  H    2.170796   4.332252   4.995650   2.509913   0.000000
    11  N    4.278624   4.688829   2.752593   2.659474   4.642472
    12  C    5.014671   5.081608   2.948955   3.720447   5.574296
    13  H    6.027114   6.171119   3.971956   4.257773   6.368992
    14  H    5.224930   4.818176   2.492267   4.567717   6.164340
    15  H    4.733376   4.958772   3.225503   3.591903   5.212047
    16  C    5.013119   5.082723   2.951617   3.716058   5.571028
    17  H    6.041667   6.162952   3.944579   4.295791   6.403779
    18  H    4.783490   5.038455   3.304422   3.571171   5.224873
    19  H    5.159423   4.753413   2.446240   4.535341   6.108176
    20  C    1.466592   2.700447   4.641382   4.653167   2.700782
    21  N    2.656631   3.542474   5.721497   5.733997   3.542206
                   11         12         13         14         15
    11  N    0.000000
    12  C    1.494113   0.000000
    13  H    2.120994   1.095429   0.000000
    14  H    2.165954   1.102948   1.785489   0.000000
    15  H    2.122870   1.093445   1.781557   1.785641   0.000000
    16  C    1.492732   2.454615   2.815757   2.627148   3.387364
    17  H    2.117909   2.771005   2.691294   3.023821   3.792873
    18  H    2.121797   3.395302   3.814007   3.618033   4.199306
    19  H    2.165195   2.660881   3.144168   2.353852   3.610447
    20  C    5.745147   6.438011   7.461358   6.597917   6.080782
    21  N    6.935146   7.605101   8.633161   7.737463   7.208408
                   16         17         18         19         20
    16  C    0.000000
    17  H    1.095305   0.000000
    18  H    1.093579   1.781924   0.000000
    19  H    1.102921   1.785296   1.786545   0.000000
    20  C    6.436533   7.477631   6.133224   6.528441   0.000000
    21  N    7.603676   8.650412   7.261861   7.666062   1.190039
                   21
    21  N    0.000000
 Stoichiometry    C9H10N2
 Framework group  C1[X(C9H10N2)]
 Deg. of freedom    57
 Full point group                 C1      NOp   1
 RotChk:  IX=0 Diff= 7.96D-03
 Largest Abelian subgroup         C1      NOp   1
 Largest concise Abelian subgroup C1      NOp   1
                         Standard orientation:                         
 ---------------------------------------------------------------------
 Center     Atomic      Atomic             Coordinates (Angstroms)
 Number     Number       Type             X           Y           Z
 ---------------------------------------------------------------------
      1          6           0       -1.083197   -1.169459    0.002578
      2          6           0        0.311523   -1.044001    0.002175
      3          6           0        0.915623    0.228951   -0.000504
      4          6           0        0.109341    1.377132   -0.003502
      5          6           0       -1.287273    1.264117   -0.003276
      6          6           0       -1.880031   -0.010984    0.000084
      7          1           0       -1.553230   -2.157562    0.004704
      8          1           0        0.931923   -1.945299    0.004477
      9          1           0        0.586510    2.360566   -0.005734
     10          1           0       -1.915338    2.159517   -0.005686
     11          7           0        2.379182    0.396105   -0.001312
     12          6           0        2.978103   -0.214761   -1.226265
     13          1           0        3.985675    0.190070   -1.370745
     14          1           0        3.047175   -1.313033   -1.151960
     15          1           0        2.364463    0.041383   -2.094284
     16          6           0        2.976484   -0.203457    1.228323
     17          1           0        4.013898    0.135787    1.319853
     18          1           0        2.413664    0.132371    2.103748
     19          1           0        2.967803   -1.305994    1.200543
     20          6           0       -3.341452   -0.134036    0.000394
     21          7           0       -4.527363   -0.233078    0.000604
 ---------------------------------------------------------------------
 Rotational constants (GHZ):           3.3690010           0.5494871           0.5227359
 Leave Link  202 at Thu Jan 12 15:42:42 2023, MaxMem=   671088640 cpu:               0.6 elap:               0.1
 (Enter /software/gaussian/g16-c01/avx/g16/l301.exe)
 Standard basis: 3-21G (6D, 7F)
 Ernie: Thresh=  0.10000D-02 Tol=  0.10000D-05 Strict=F.
 There are   119 symmetry adapted cartesian basis functions of A   symmetry.
 There are   119 symmetry adapted basis functions of A   symmetry.
   119 basis functions,   195 primitive gaussians,   119 cartesian basis functions
    39 alpha electrons       39 beta electrons
       nuclear repulsion energy       542.0440241209 Hartrees.
 IExCor= 1009 DFT=T Ex=PBE Corr=PBE ExCW=0 ScaHFX=  0.000000
 ScaDFX=  1.000000  1.000000  1.000000  1.000000 ScalE2=  1.000000  1.000000
 IRadAn=      5 IRanWt=     -1 IRanGd=            0 ICorTp=0 IEmpDi=  4
 NAtoms=   21 NActive=   21 NUniq=   21 SFac= 1.00D+00 NAtFMM=   60 NAOKFM=F Big=F
 Integral buffers will be    131072 words long.
 Raffenetti 2 integral format.
 Two-electron integral symmetry is turned on.
 Leave Link  301 at Thu Jan 12 15:42:42 2023, MaxMem=   671088640 cpu:               1.9 elap:               0.3
 (Enter /software/gaussian/g16-c01/avx/g16/l302.exe)
 NPDir=0 NMtPBC=     1 NCelOv=     1 NCel=       1 NClECP=     1 NCelD=      1
         NCelK=      1 NCelE2=     1 NClLst=     1 CellRange=     0.0.
 One-electron integrals computed using PRISM.
 One-electron integral symmetry used in STVInt
 NBasis=   119 RedAO= T EigKep=  1.53D-03  NBF=   119
 NBsUse=   119 1.00D-06 EigRej= -1.00D+00 NBFU=   119
 Precomputing XC quadrature grid using
 IXCGrd= 4 IRadAn=           5 IRanWt=          -1 IRanGd=           0 AccXCQ= 0.00D+00.
 Generated NRdTot=       0 NPtTot=           0 NUsed=           0 NTot=          32
 NSgBfM=   118   118   118   118   118 MxSgAt=    21 MxSgA2=    21.
 Leave Link  302 at Thu Jan 12 15:42:43 2023, MaxMem=   671088640 cpu:               2.5 elap:               0.3
 (Enter /software/gaussian/g16-c01/avx/g16/l303.exe)
 DipDrv:  MaxL=1.
 Leave Link  303 at Thu Jan 12 15:42:43 2023, MaxMem=   671088640 cpu:               1.6 elap:               0.2
 (Enter /software/gaussian/g16-c01/avx/g16/l401.exe)
 Initial guess from the checkpoint file:  "geometry.chk"
 B after Tr=     0.000000    0.000000    0.000000
         Rot=    0.999998    0.001799    0.000016   -0.000139 Ang=   0.21 deg.
 Guess basis will be translated and rotated to current coordinates.
 JPrj=2 DoOrth=T DoCkMO=T.
 Generating alternative initial guess.
 ExpMin= 1.83D-01 ExpMax= 2.43D+02 ExpMxC= 2.43D+02 IAcc=3 IRadAn=         5 AccDes= 0.00D+00
 Harris functional with IExCor= 1009 and IRadAn=       5 diagonalized for initial guess.
 HarFok:  IExCor= 1009 AccDes= 0.00D+00 IRadAn=         5 IDoV= 1 UseB2=F ITyADJ=14
 ICtDFT=  3500011 ScaDFX=  1.000000  1.000000  1.000000  1.000000
 FoFCou: FMM=F IPFlag=           0 FMFlag=      100000 FMFlg1=           0
         NFxFlg=           0 DoJE=T BraDBF=F KetDBF=T FulRan=T
         wScrn=  0.000000 ICntrl=       500 IOpCl=  0 I1Cent=   200000004 NGrid=           0
         NMat0=    1 NMatS0=      1 NMatT0=    0 NMatD0=    1 NMtDS0=    0 NMtDT0=    0
 Petite list used in FoFCou.
 Harris En= -455.432840667584    
 Leave Link  401 at Thu Jan 12 15:42:44 2023, MaxMem=   671088640 cpu:              12.1 elap:               1.3
 (Enter /software/gaussian/g16-c01/avx/g16/l502.exe)
 Integral symmetry usage will be decided dynamically.
 Closed shell SCF:
 Using DIIS extrapolation, IDIIS=  1040.
 NGot=   671088640 LenX=   671056704 LenY=   671042102
 Requested convergence on RMS density matrix=1.00D-08 within 128 cycles.
 Requested convergence on MAX density matrix=1.00D-06.
 Requested convergence on             energy=1.00D-06.
 No special actions if energy rises.
 Fock matrices will be formed incrementally for  20 cycles.
 Integral accuracy reduced to 1.0D-05 until final iterations.

 Cycle   1  Pass 0  IDiag  1:
 FoFJK:  IHMeth= 1 ICntrl=     500 DoSepK=F KAlg= 0 I1Cent=           0 FoldK=F
 IRaf= 860000000 NMat=       1 IRICut=       1 DoRegI=T DoRafI=F ISym2E= 0 IDoP0=0 IntGTp=1.
 FoFCou: FMM=F IPFlag=           0 FMFlag=      100000 FMFlg1=           0
         NFxFlg=           0 DoJE=T BraDBF=F KetDBF=F FulRan=T
         wScrn=  0.000000 ICntrl=       500 IOpCl=  0 I1Cent=           0 NGrid=           0
         NMat0=    1 NMatS0=      1 NMatT0=    0 NMatD0=    1 NMtDS0=    0 NMtDT0=    0
 Symmetry not used in FoFCou.
 E= -455.337438414528    
 DIIS: error= 1.52D-02 at cycle   1 NSaved=   1.
 NSaved= 1 IEnMin= 1 EnMin= -455.337438414528     IErMin= 1 ErrMin= 1.52D-02
 ErrMax= 1.52D-02  0.00D+00 EMaxC= 1.00D-01 BMatC= 1.25D-02 BMatP= 1.25D-02
 IDIUse=3 WtCom= 8.48D-01 WtEn= 1.52D-01
 Coeff-Com:  0.100D+01
 Coeff-En:   0.100D+01
 Coeff:      0.100D+01
 Recover alternate guess density for next cycle.
 RMSDP=4.37D-03 MaxDP=1.07D-01              OVMax= 0.00D+00

 Cycle   2  Pass 0  IDiag  1:
 RMSU=  4.36D-03    CP:  9.92D-01
 E= -455.227268071422     Delta-E=        0.110170343106 Rises=F Damp=F
 Switch densities from cycles 1 and 2 for lowest energy.
 DIIS: error= 3.30D-02 at cycle   2 NSaved=   2.
 NSaved= 2 IEnMin= 1 EnMin= -455.337438414528     IErMin= 1 ErrMin= 1.52D-02
 ErrMax= 3.30D-02  0.00D+00 EMaxC= 1.00D+00 BMatC= 1.12D-01 BMatP= 1.25D-02
 IDIUse=1 WtCom= 1.00D+00 WtEn= 0.00D+00
 Coeff-Com:  0.908D+00 0.916D-01
 Coeff:      0.908D+00 0.916D-01
 Gap=     0.098 Goal=   None    Shift=    0.000
 RMSDP=2.41D-03 MaxDP=5.67D-02 DE= 1.10D-01 OVMax= 7.74D-02

 Cycle   3  Pass 0  IDiag  1:
 RMSU=  2.30D-03    CP:  9.99D-01  1.67D-01
 E= -455.341626665142     Delta-E=       -0.114358593720 Rises=F Damp=F
 DIIS: error= 8.43D-03 at cycle   3 NSaved=   3.
 NSaved= 3 IEnMin= 3 EnMin= -455.341626665142     IErMin= 3 ErrMin= 8.43D-03
 ErrMax= 8.43D-03  0.00D+00 EMaxC= 1.00D+00 BMatC= 8.30D-03 BMatP= 1.25D-02
 IDIUse=1 WtCom= 1.00D+00 WtEn= 0.00D+00
 Coeff-Com:  0.250D+00 0.132D+00 0.618D+00
 Coeff:      0.250D+00 0.132D+00 0.618D+00
 Gap=     0.111 Goal=   None    Shift=    0.000
 RMSDP=1.13D-03 MaxDP=2.19D-02 DE=-1.14D-01 OVMax= 3.97D-02

 Cycle   4  Pass 0  IDiag  1:
 RMSU=  9.07D-04    CP:  9.99D-01  2.40D-01  7.43D-01
 E= -455.345157980699     Delta-E=       -0.003531315558 Rises=F Damp=F
 DIIS: error= 9.38D-03 at cycle   4 NSaved=   4.
 NSaved= 4 IEnMin= 4 EnMin= -455.345157980699     IErMin= 3 ErrMin= 8.43D-03
 ErrMax= 9.38D-03  0.00D+00 EMaxC= 1.00D+00 BMatC= 4.89D-03 BMatP= 8.30D-03
 IDIUse=1 WtCom= 1.00D+00 WtEn= 0.00D+00
 Coeff-Com:  0.102D+00 0.737D-01 0.459D+00 0.366D+00
 Coeff:      0.102D+00 0.737D-01 0.459D+00 0.366D+00
 Gap=     0.107 Goal=   None    Shift=    0.000
 RMSDP=7.16D-04 MaxDP=1.35D-02 DE=-3.53D-03 OVMax= 3.04D-02

 Cycle   5  Pass 0  IDiag  1:
 RMSU=  4.90D-04    CP:  1.00D+00  2.30D-01  8.23D-01  4.66D-01
 E= -455.348868605462     Delta-E=       -0.003710624763 Rises=F Damp=F
 DIIS: error= 4.49D-03 at cycle   5 NSaved=   5.
 NSaved= 5 IEnMin= 5 EnMin= -455.348868605462     IErMin= 5 ErrMin= 4.49D-03
 ErrMax= 4.49D-03  0.00D+00 EMaxC= 1.00D+00 BMatC= 1.09D-03 BMatP= 4.89D-03
 IDIUse=1 WtCom= 1.00D+00 WtEn= 0.00D+00
 Coeff-Com:  0.858D-02 0.326D-01 0.213D+00 0.312D+00 0.433D+00
 Coeff:      0.858D-02 0.326D-01 0.213D+00 0.312D+00 0.433D+00
 Gap=     0.105 Goal=   None    Shift=    0.000
[...]
     13          1           0        5.269271    0.067820   -0.695963
     14          1           0        3.835836   -0.999339   -0.585514
     15          1           0        3.967433    0.198337   -1.918088
     16          6           0        4.375278    1.898432    0.863911
     17          1           0        5.430351    1.621565    0.721709
     18          1           0        4.256246    2.967937    0.602445
     19          1           0        4.121244    1.769638    1.934059
     20          6           0       -2.090081    1.640070   -0.014417
     21          7           0       -3.265315    1.765482   -0.018513
 ---------------------------------------------------------------------
                    Distance matrix (angstroms):
                    1          2          3          4          5
     1  C    0.000000
     2  C    1.391769   0.000000
     3  C    2.456839   1.427137   0.000000
     4  C    2.803153   2.436222   1.427053   0.000000
     5  C    2.430214   2.803144   2.456818   1.391825   0.000000
     6  C    1.416571   2.444930   2.863394   2.444938   1.416520
     7  H    1.092364   2.154099   3.443256   3.895514   3.420819
     8  H    2.141879   1.090331   2.185948   3.432961   3.893331
     9  H    3.893340   3.433021   2.185948   1.090334   2.141855
    10  H    3.420865   3.895504   3.443179   2.154082   1.092362
    11  N    3.719133   2.447854   1.379768   2.447900   3.719203
    12  C    4.254233   2.862604   2.472055   3.794893   4.928516
    13  H    5.334253   3.943459   3.366156   4.548721   5.795004
    14  H    4.172434   2.855128   2.808191   4.159225   5.151155
    15  H    4.171163   2.853812   2.807470   4.158711   5.150439
    16  C    4.928581   3.794922   2.472093   2.862845   4.254532
    17  H    5.795035   4.548738   3.366227   3.943697   5.334542
    18  H    5.151826   4.159767   2.808480   2.855456   4.173032
    19  H    5.150155   4.158436   2.807364   2.854115   4.171375
    20  C    2.469952   3.745741   4.285654   3.745742   2.469883
    21  N    3.546931   4.878579   5.467568   4.878578   3.546862
                    6          7          8          9         10
     6  C    0.000000
     7  H    2.169916   0.000000
     8  H    3.422714   2.459365   0.000000
     9  H    3.422664   4.985679   4.349603   0.000000
    10  H    2.169931   4.324272   4.985669   2.459202   0.000000
    11  N    4.243162   4.599366   2.699984   2.700212   4.599394
    12  C    5.142220   4.879815   2.506462   4.167107   5.901633
    13  H    6.151097   5.979706   3.595795   4.701914   6.699262
    14  H    5.184559   4.661102   2.308504   4.654273   6.161369
    15  H    5.183554   4.659699   2.306867   4.653991   6.160740
    16  C    5.142404   5.901710   4.166898   2.506943   4.880083
    17  H    6.151259   6.699304   4.701669   3.596284   5.979974
    18  H    5.185273   6.162108   4.654586   2.308540   4.661542
    19  H    5.183448   6.160408   4.653495   2.307843   4.659989
    20  C    1.422260   2.693291   4.610410   4.610321   2.693302
    21  N    2.604174   3.528013   5.679998   5.679893   3.528023
                   11         12         13         14         15
    11  N    0.000000
    12  C    1.472532   0.000000
    13  H    2.100837   1.100025   0.000000
    14  H    2.141828   1.107412   1.790464   0.000000
    15  H    2.141705   1.107396   1.790365   1.796524   0.000000
    16  C    1.472530   2.547441   2.565847   3.284647   3.285754
    17  H    2.100899   2.565937   2.109470   3.334733   3.336801
    18  H    2.141879   3.285218   3.335081   4.162604   3.755954
    19  H    2.141733   3.285267   3.336340   3.754589   4.163134
    20  C    5.665422   6.529665   7.556225   6.512228   6.511223
    21  N    6.847336   7.692327   8.728124   7.641471   7.640483
                   16         17         18         19         20
    16  C    0.000000
    17  H    1.100026   0.000000
    18  H    1.107418   1.790381   0.000000
    19  H    1.107402   1.790385   1.796481   0.000000
    20  C    6.529860   7.556396   6.513034   6.511061   0.000000
    21  N    7.692529   8.728302   7.642341   7.640276   1.181914
                   21
    21  N    0.000000
 Stoichiometry    C9H10N2
 Framework group  C1[X(C9H10N2)]
 Deg. of freedom    57
 Full point group                 C1      NOp   1
 RotChk:  IX=3 Diff= 4.23D-16
 Largest Abelian subgroup         C1      NOp   1
 Largest concise Abelian subgroup C1      NOp   1
                         Standard orientation:                         
 ---------------------------------------------------------------------
 Center     Atomic      Atomic             Coordinates (Angstroms)
 Number     Number       Type             X           Y           Z
 ---------------------------------------------------------------------
      1          6           0       -1.205788   -1.215110    0.000002
      2          6           0        0.185978   -1.218080   -0.000110
      3          6           0        0.929475    0.000088   -0.000305
      4          6           0        0.185954    1.218142   -0.000486
      5          6           0       -1.205868    1.215104   -0.000369
      6          6           0       -1.933918    0.000003   -0.000072
      7          1           0       -1.750235   -2.162124    0.000191
      8          1           0        0.709098   -2.174724    0.000011
      9          1           0        0.708909    2.174880   -0.000894
     10          1           0       -1.750260    2.162147   -0.000589
     11          7           0        2.309243    0.000006   -0.000291
     12          6           0        3.048040   -1.273780   -0.000007
     13          1           0        4.126057   -1.054842   -0.000965
     14          1           0        2.814552   -1.877179    0.898745
     15          1           0        2.813293   -1.878119   -0.897778
     16          6           0        3.048261    1.273661    0.000695
     17          1           0        4.126259    1.054626    0.001868
     18          1           0        2.815303    1.877834   -0.897680
     19          1           0        2.813239    1.877410    0.898799
     20          6           0       -3.356179   -0.000004    0.000181
     21          7           0       -4.538093   -0.000013    0.000451
 ---------------------------------------------------------------------
 Rotational constants (GHZ):           3.3998551           0.5698773           0.4911540
 Leave Link  202 at Thu Jan 12 15:48:12 2023, MaxMem=   671088640 cpu:               1.0 elap:               0.2
 (Enter /software/gaussian/g16-c01/avx/g16/l601.exe)
 Copying SCF densities to generalized density rwf, IOpCl= 0 IROHF=0.

 **********************************************************************

            Population analysis using the SCF Density.

 **********************************************************************

 Orbital symmetries:
       Occupied  (A) (A) (A) (A) (A) (A) (A) (A) (A) (A) (A) (A)
                 (A) (A) (A) (A) (A) (A) (A) (A) (A) (A) (A) (A)
                 (A) (A) (A) (A) (A) (A) (A) (A) (A) (A) (A) (A)
                 (A) (A) (A)
       Virtual   (A) (A) (A) (A) (A) (A) (A) (A) (A) (A) (A) (A)
                 (A) (A) (A) (A) (A) (A) (A) (A) (A) (A) (A) (A)
                 (A) (A) (A) (A) (A) (A) (A) (A) (A) (A) (A) (A)
                 (A) (A) (A) (A) (A) (A) (A) (A) (A) (A) (A) (A)
                 (A) (A) (A) (A) (A) (A) (A) (A) (A) (A) (A) (A)
                 (A) (A) (A) (A) (A) (A) (A) (A) (A) (A) (A) (A)
                 (A) (A) (A) (A) (A) (A) (A) (A)
 The electronic state is 1-A.
 Alpha  occ. eigenvalues --  -13.97571 -13.90116  -9.89856  -9.88802  -9.88753
 Alpha  occ. eigenvalues --   -9.86835  -9.85692  -9.85650  -9.85619  -9.84932
 Alpha  occ. eigenvalues --   -9.84908  -0.88684  -0.81814  -0.78324  -0.70292
 Alpha  occ. eigenvalues --   -0.69472  -0.67068  -0.63097  -0.55993  -0.55085
 Alpha  occ. eigenvalues --   -0.50500  -0.47659  -0.45664  -0.42936  -0.41187
 Alpha  occ. eigenvalues --   -0.39898  -0.39025  -0.37862  -0.37535  -0.35563
 Alpha  occ. eigenvalues --   -0.35389  -0.34849  -0.31285  -0.30324  -0.27287
 Alpha  occ. eigenvalues --   -0.27230  -0.24859  -0.23361  -0.17352
 Alpha virt. eigenvalues --   -0.04615  -0.03383   0.01890   0.05714   0.06392
 Alpha virt. eigenvalues --    0.06915   0.09574   0.10132   0.12386   0.12807
 Alpha virt. eigenvalues --    0.14015   0.14057   0.14059   0.15048   0.16031
 Alpha virt. eigenvalues --    0.19773   0.20065   0.21074   0.24548   0.28849
 Alpha virt. eigenvalues --    0.30986   0.33117   0.34185   0.47675   0.48303
 Alpha virt. eigenvalues --    0.53898   0.58350   0.59296   0.61043   0.63827
 Alpha virt. eigenvalues --    0.64267   0.66457   0.66966   0.69476   0.71294
 Alpha virt. eigenvalues --    0.71317   0.73211   0.74453   0.74692   0.77887
 Alpha virt. eigenvalues --    0.80118   0.80783   0.83332   0.84634   0.89332
 Alpha virt. eigenvalues --    0.89910   0.90167   0.91171   0.92020   0.93567
 Alpha virt. eigenvalues --    0.94542   0.94563   0.97412   1.01081   1.07399
 Alpha virt. eigenvalues --    1.11000   1.11340   1.13834   1.15667   1.17016
 Alpha virt. eigenvalues --    1.20312   1.21960   1.23203   1.24345   1.32733
 Alpha virt. eigenvalues --    1.33606   1.44380   1.44665   1.46592   1.48463
 Alpha virt. eigenvalues --    1.55212   1.64336   1.71629   1.75259   1.84139
 Alpha virt. eigenvalues --    1.85057   2.03554   2.38393   2.83150   2.91696
          Condensed to atoms (all electrons):
               1          2          3          4          5          6
     1  C    5.134787   0.447433  -0.048426  -0.035096  -0.052043   0.438982
     2  C    0.447433   5.218574   0.398408  -0.046564  -0.035098  -0.075927
     3  C   -0.048426   0.398408   4.930617   0.398409  -0.048422  -0.032664
     4  C   -0.035096  -0.046564   0.398409   5.218572   0.447413  -0.075927
     5  C   -0.052043  -0.035098  -0.048422   0.447413   5.134800   0.439000
     6  C    0.438982  -0.075927  -0.032664  -0.075927   0.439000   5.476389
     7  H    0.389581  -0.036078   0.003894  -0.000097   0.003682  -0.041642
     8  H   -0.039637   0.385225  -0.048040   0.003802  -0.000179   0.004457
     9  H   -0.000179   0.003802  -0.048044   0.385231  -0.039641   0.004457
    10  H    0.003682  -0.000097   0.003894  -0.036080   0.389583  -0.041639
    11  N    0.004471  -0.058124   0.264677  -0.058136   0.004470  -0.000332
    12  C    0.000150  -0.005186  -0.068251   0.001820  -0.000101   0.000008
    13  H   -0.000003   0.000289   0.003266  -0.000056   0.000001   0.000000
    14  H    0.000000   0.002199  -0.001706   0.000124   0.000000  -0.000004
    15  H    0.000001   0.002196  -0.001713   0.000124   0.000000  -0.000005
    16  C   -0.000101   0.001820  -0.068242  -0.005173   0.000150   0.000008
    17  H    0.000001  -0.000056   0.003266   0.000289  -0.000003   0.000000
    18  H    0.000000   0.000123  -0.001707   0.002191   0.000001  -0.000004
    19  H    0.000000   0.000125  -0.001713   0.002207   0.000001  -0.000005
    20  C   -0.076847   0.004842  -0.000194   0.004842  -0.076867   0.050303
    21  N   -0.000646   0.000002  -0.000000   0.000002  -0.000647  -0.116516
               7          8          9         10         11         12
     1  C    0.389581  -0.039637  -0.000179   0.003682   0.004471   0.000150
     2  C   -0.036078   0.385225   0.003802  -0.000097  -0.058124  -0.005186
     3  C    0.003894  -0.048040  -0.048044   0.003894   0.264677  -0.068251
     4  C   -0.000097   0.003802   0.385231  -0.036080  -0.058136   0.001820
     5  C    0.003682  -0.000179  -0.039641   0.389583   0.004470  -0.000101
     6  C   -0.041642   0.004457   0.004457  -0.041639  -0.000332   0.000008
     7  H    0.481911  -0.004590   0.000002  -0.000051  -0.000015  -0.000003
     8  H   -0.004590   0.501445  -0.000044   0.000002  -0.007776   0.004882
     9  H    0.000002  -0.000044   0.501454  -0.004591  -0.007772  -0.000010
    10  H   -0.000051   0.000002  -0.004591   0.481910  -0.000015   0.000001
    11  N   -0.000015  -0.007776  -0.007772  -0.000015   7.157988   0.296503
    12  C   -0.000003   0.004882  -0.000010   0.000001   0.296503   5.202838
    13  H   -0.000000   0.000081  -0.000000  -0.000000  -0.026716   0.360007
    14  H    0.000000   0.000931  -0.000002  -0.000000  -0.040504   0.349654
    15  H    0.000000   0.000937  -0.000002  -0.000000  -0.040464   0.349686
    16  C    0.000001  -0.000010   0.004879  -0.000003   0.296519  -0.059748
    17  H   -0.000000  -0.000000   0.000080  -0.000000  -0.026711  -0.005177
    18  H   -0.000000  -0.000002   0.000936   0.000000  -0.040479   0.002116
    19  H   -0.000000  -0.000002   0.000933   0.000000  -0.040482   0.002118
    20  C   -0.006109  -0.000068  -0.000068  -0.006109  -0.000000  -0.000000
    21  N   -0.000069  -0.000000  -0.000000  -0.000069  -0.000000   0.000000
              13         14         15         16         17         18
     1  C   -0.000003   0.000000   0.000001  -0.000101   0.000001   0.000000
     2  C    0.000289   0.002199   0.002196   0.001820  -0.000056   0.000123
     3  C    0.003266  -0.001706  -0.001713  -0.068242   0.003266  -0.001707
     4  C   -0.000056   0.000124   0.000124  -0.005173   0.000289   0.002191
     5  C    0.000001   0.000000   0.000000   0.000150  -0.000003   0.000001
     6  C    0.000000  -0.000004  -0.000005   0.000008   0.000000  -0.000004
     7  H   -0.000000   0.000000   0.000000   0.000001  -0.000000  -0.000000
     8  H    0.000081   0.000931   0.000937  -0.000010  -0.000000  -0.000002
     9  H   -0.000000  -0.000002  -0.000002   0.004879   0.000080   0.000936
    10  H   -0.000000  -0.000000  -0.000000  -0.000003  -0.000000   0.000000
    11  N   -0.026716  -0.040504  -0.040464   0.296519  -0.026711  -0.040479
    12  C    0.360007   0.349654   0.349686  -0.059748  -0.005177   0.002116
    13  H    0.488028  -0.024313  -0.024272  -0.005176   0.006926   0.000109
    14  H   -0.024313   0.529721  -0.044479   0.002114   0.000109  -0.000191
    15  H   -0.024272  -0.044479   0.529561   0.002120   0.000106   0.000289
    16  C   -0.005176   0.002114   0.002120   5.202805   0.360007   0.349678
    17  H    0.006926   0.000109   0.000106   0.360007   0.488031  -0.024315
    18  H    0.000109  -0.000191   0.000289   0.349678  -0.024315   0.529672
    19  H    0.000106   0.000291  -0.000191   0.349657  -0.024278  -0.044482
    20  C   -0.000000   0.000000   0.000000  -0.000000  -0.000000   0.000000
    21  N    0.000000   0.000000   0.000000   0.000000   0.000000   0.000000
              19         20         21
     1  C    0.000000  -0.076847  -0.000646
     2  C    0.000125   0.004842   0.000002
     3  C   -0.001713  -0.000194  -0.000000
     4  C    0.002207   0.004842   0.000002
     5  C    0.000001  -0.076867  -0.000647
     6  C   -0.000005   0.050303  -0.116516
     7  H   -0.000000  -0.006109  -0.000069
     8  H   -0.000002  -0.000068  -0.000000
     9  H    0.000933  -0.000068  -0.000000
    10  H    0.000000  -0.006109  -0.000069
    11  N   -0.040482  -0.000000  -0.000000
    12  C    0.002118  -0.000000   0.000000
    13  H    0.000106  -0.000000   0.000000
    14  H    0.000291   0.000000   0.000000
    15  H   -0.000191   0.000000   0.000000
    16  C    0.349657  -0.000000   0.000000
    17  H   -0.024278  -0.000000   0.000000
    18  H   -0.044482   0.000000   0.000000
    19  H    0.529630   0.000000   0.000000
    20  C    0.000000   5.037325   0.778112
    21  N    0.000000   0.778112   6.840784
 Mulliken charges:
               1
     1  C   -0.166109
     2  C   -0.207909
     3  C    0.362692
     4  C   -0.207896
     5  C   -0.166098
     6  C   -0.028940
     7  H    0.209584
     8  H    0.198586
     9  H    0.198578
    10  H    0.209584
    11  N   -0.677103
    12  C   -0.431306
    13  H    0.221723
    14  H    0.226055
    15  H    0.226104
    16  C   -0.431305
    17  H    0.221726
    18  H    0.226063
    19  H    0.226083
    20  C    0.290839
    21  N   -0.500951
 Sum of Mulliken charges =  -0.00000
 Mulliken charges with hydrogens summed into heavy atoms:
               1
     1  C    0.043474
     2  C   -0.009323
     3  C    0.362692
     4  C   -0.009318
     5  C    0.043486
     6  C   -0.028940
    11  N   -0.677103
    12  C    0.242575
    16  C    0.242567
    20  C    0.290839
    21  N   -0.500951
 Electronic spatial extent (au):  <R**2>=           2194.1739
 Charge=             -0.0000 electrons
 Dipole moment (field-independent basis, Debye):
    X=              7.7766    Y=             -0.0000    Z=              0.0004  Tot=              7.7766
 Quadrupole moment (field-independent basis, Debye-Ang):
   XX=            -77.4208   YY=            -56.1246   ZZ=            -68.9739
   XY=             -0.0001   XZ=              0.0059   YZ=             -0.0004
 Traceless Quadrupole moment (field-independent basis, Debye-Ang):
   XX=             -9.9144   YY=             11.3818   ZZ=             -1.4674
   XY=             -0.0001   XZ=              0.0059   YZ=             -0.0004
 Octapole moment (field-independent basis, Debye-Ang**2):
  XXX=            189.4480  YYY=              0.0016  ZZZ=              0.0054  XYY=              6.6274
  XXY=              0.0017  XXZ=             -0.0063  XZZ=              4.3411  YZZ=             -0.0004
  YYZ=             -0.0038  XYZ=              0.0048
 Hexadecapole moment (field-independent basis, Debye-Ang**3):
 XXXX=          -2907.4988 YYYY=           -448.6391 ZZZZ=            -81.2631 XXXY=              0.0061
 XXXZ=              0.1054 YYYX=              0.0010 YYYZ=             -0.0080 ZZZX=              0.0014
 ZZZY=              0.0008 XXYY=           -437.1028 XXZZ=           -419.7433 YYZZ=            -97.5529
 XXYZ=              0.0054 YYXZ=             -0.0051 ZZXY=              0.0001
 N-N= 5.426346993650D+02 E-N=-2.141147945109D+03  KE= 4.512994622789D+02
 No NMR shielding tensors so no spin-rotation constants.
 Leave Link  601 at Thu Jan 12 15:48:12 2023, MaxMem=   671088640 cpu:               2.5 elap:               0.3
 (Enter /software/gaussian/g16-c01/avx/g16/l9999.exe)
 Unable to Open any file for archive entry.
 1\1\GINC-BHG0001\FOpt\RPBEPBE\3-21G\C9H10N2\BWEIGHT\12-Jan-2023\0\\#P 
 OPT PBEPBE/3-21G\\Title Card Required\\0,1\C,-0.044658584,0.5155785736
 ,-0.8221482899\C,1.3389990143,0.3655657963,-0.8191725029\C,2.171321086
 3,1.185040869,0.0008400758\C,1.5250447193,2.1624438803,0.8153896362\C,
 0.1408720195,2.3080288141,0.8083852453\C,-0.6758639757,1.4891055825,-0
 .009437939\H,-0.6583515732,-0.1250799143,-1.4594834149\H,1.7860908603,
 -0.3955956925,-1.4591449121\H,2.118126273,2.8127029238,1.4590089271\H,
 -0.328097071,3.0644363597,1.4417649999\N,3.5432599649,1.0383485107,0.0
 058034419\C,4.1805751728,0.020279041,-0.8460848382\H,5.2692707638,0.06
 78198112,-0.695962763\H,3.8358362089,-0.9993385622,-0.5855139454\H,3.9
 674327374,0.1983365871,-1.9180879963\C,4.3752775589,1.8984323517,0.863
 9105549\H,5.430351289,1.6215649555,0.7217090017\H,4.2562462815,2.96793
 73335,0.6024450085\H,4.1212444575,1.7696379322,1.9340590827\C,-2.09008
 07489,1.6400698035,-0.0144173857\N,-3.2653153947,1.7654815832,-0.01851
 28967\\Version=ES64L-G16RevC.01\State=1-A\HF=-455.3684416\RMSD=4.274e-
 09\RMSF=1.099e-05\Dipole=3.0422024,-0.32523,0.0112135\Quadrupole=-7.24
 50349,4.0344964,3.2105385,1.1987154,0.4700671,4.729682\PG=C01 [X(C9H10
 N2)]\\@
 The archive entry for this job was punched.


 WE STILL HAVE JUDGEMENT HERE,
 THAT WE TEACH BUT BLOODY INSTRUCTIONS,
 WHICH, BEING TAUGHT,
 RETURN TO PLAGUE THE INVENTOR.
           MACBETH ACT I, SCENE VII
 Job cpu time:       0 days  0 hours 59 minutes  6.1 seconds.
 Elapsed time:       0 days  0 hours  5 minutes 39.4 seconds.
 File lengths (MBytes):  RWF=    272 Int=      0 D2E=      0 Chk=     32 Scr=     32
 Normal termination of Gaussian 16 at Thu Jan 12 15:48:12 2023.
