60
MD Step 0 Units = [eV / Ang.]
C  0.78283618 -1.30938719 0.63526845
C  0.81043722 -1.41287028 0.27468472
C  1.20853951 0.71951082 0.86587021
C  1.11403285 0.46634965 1.12703915
C  1.28453269 -0.15252900 -1.02803941
C  1.35135021 0.20307482 -0.92906668
C  1.05354552 -1.05841695 0.70590126
C  1.24929264 -1.00744434 0.38911443
C  1.10072478 -1.22725014 0.12258631
C  -0.23163713 -0.20702728 1.62314227
C  1.43123765 0.54870136 0.61445852
C  1.27788030 0.14106455 1.03878237
C  0.46970101 1.47255377 -0.58338536
C  0.44087153 1.57538584 -0.22130802
C  1.41944254 -0.37701059 -0.75646413
C  1.56994704 -0.15814614 -0.48879525
C  1.52757802 0.20142948 -0.59464459
C  -0.09489814 -1.29716510 -1.01866793
C  -0.00076284 -1.04387871 -1.28068774
C  -0.97804862 -1.29803103 0.29599927
C  -0.80165441 -1.30053745 0.62836930
C  0.37288083 -0.99502335 -1.26581305
C  0.50706367 -1.21801099 -0.99358073
C  0.21849290 -1.40427634 -0.84157078
C  -0.03474736 0.73802423 -1.47878951
C  -0.30708372 0.48651271 -1.54834138
C  -0.14204607 0.15934638 -1.63778539
C  0.75544926 1.46941320 -0.04571876
C  1.47269324 0.19049636 0.72020450
C  -1.05331576 1.05845259 -0.70512205
C  0.00012211 1.04381769 1.28028902
C  0.09499841 1.29722062 1.01860628
C  -1.52756779 -0.20144853 0.59463911
C  -1.35133924 -0.20306053 0.92907038
C  -0.81054282 1.41277752 -0.27472301
C  -1.10072431 1.22718505 -0.12268752
C  -1.24922329 1.00745411 -0.38928753
C  0.97823135 1.29795844 -0.29591502
C  0.80170174 1.30054697 -0.62845339
C  -0.37272722 0.99503952 1.26583975
C  -0.21851135 1.40427177 0.84158213
C  0.03475503 -0.73803043 1.47886242
C  0.30689305 -0.48651098 1.54803197
C  -1.56978970 0.15811635 0.48895034
C  -1.41935443 0.37687586 0.75634981
C  -1.28452378 0.15253577 1.02808598
C  -1.11409826 -0.46640302 -1.12703624
C  -1.20821693 -0.71948281 -0.86601288
C  0.23163359 0.20706010 -1.62311186
C  0.29626571 0.56493750 -1.52277123
C  -1.43136340 -0.54866032 -0.61438787
C  -1.47271627 -0.19045798 -0.72019547
C  -1.27789883 -0.14100633 -1.03885253
C  -0.46963992 -1.47260292 0.58328026
C  -0.44055738 -1.57538890 0.22201298
C  -0.75618848 -1.46912990 0.04513427
C  0.14217034 -0.15934318 1.63798234
C  -0.50700146 1.21797952 0.99361462
C  -0.29628863 -0.56494411 1.52278580
C  -0.78283337 1.30938223 -0.63532292
60
MD Step 1 Units = [eV / Ang.]
C  0.79180257 -1.28267419 0.60829111
C  0.81651881 -1.37547631 0.28442721
C  1.20079226 0.68273577 0.85509699
C  1.11594894 0.45548369 1.08978501
C  1.28049304 -0.14201184 -0.99090560
C  1.34059802 0.17738745 -0.90178305
C  1.03473017 -1.05728968 0.67159554
C  1.21049853 -1.01152651 0.38718320
C  1.07714446 -1.20891131 0.14794027
C  -0.20889105 -0.22410104 1.59637404
C  1.40071542 0.52934791 0.62930546
C  1.26308661 0.16353787 1.01043403
C  0.48293063 1.44874756 -0.55530544
C  0.45706035 1.54086525 -0.23033627
C  1.40163837 -0.34359013 -0.74674063
C  1.53678656 -0.14702653 -0.50632850
C  1.49875506 0.17584561 -0.60128987
C  -0.06738459 -1.27068765 -1.01064664
C  0.01720819 -1.04320283 -1.24587062
C  -0.93945299 -1.29200226 0.29736622
C  -0.78106379 -1.29425879 0.59576996
C  0.35265804 -0.99932646 -1.23272853
C  0.47304554 -1.19956764 -0.98809274
C  0.21405382 -1.36678571 -0.85163938
C  -0.03042167 0.70107977 -1.46672570
C  -0.27495046 0.47517584 -1.52903026
C  -0.12662516 0.18136117 -1.60942943
C  0.73966667 1.44598399 -0.07260985
C  1.43789437 0.20778848 0.72413971
C  -1.03452356 1.05734415 -0.67091831
C  -0.01773120 1.04317119 1.24555893
C  0.06751463 1.27070047 1.01064442
C  -1.49881542 -0.17590965 0.60124408
C  -1.34048021 -0.17732255 0.90187929
C  -0.81655122 1.37545942 -0.28456576
C  -1.07734487 1.20885307 -0.14793383
C  -1.21044518 1.01150293 -0.38736320
C  0.93967178 1.29194992 -0.29728027
C  0.78108065 1.29424376 -0.59570913
C  -0.35243370 0.99938021 1.23262836
C  -0.21414312 1.36682477 0.85155127
C  0.03044573 -0.70102747 1.46680725
C  0.27475494 -0.47519452 1.52879248
C  -1.53660680 0.14709310 0.50649790
C  -1.40153957 0.34340941 0.74666256
C  -1.28055710 0.14203451 0.99061339
C  -1.11603056 -0.45556556 -1.08956952
C  -1.20044049 -0.68270488 -0.85517803
C  0.20882643 0.22416011 -1.59627938
C  0.26678184 0.54560278 -1.50615618
C  -1.40088866 -0.52934455 -0.62925876
C  -1.43798127 -0.20773470 -0.72409039
C  -1.26299093 -0.16347790 -1.01056396
C  -0.48303245 -1.44868490 0.55525733
C  -0.45672614 -1.54098947 0.23096292
C  -0.74033701 -1.44560413 0.07211073
C  0.12687159 -0.18148457 1.60946764
C  -0.47298260 1.19951006 0.98816676
C  -0.26672532 -0.54567043 1.50608655
C  -0.79187694 1.28257389 -0.60831138
60
MD Step 2 Units = [eV / Ang.]
C  0.81737611 -1.20423325 0.52941767
C  0.83364964 -1.26612998 0.31264425
C  1.17750644 0.57554381 0.82330574
C  1.12088080 0.42360602 0.98047312
C  1.26809650 -0.11116925 -0.88188833
C  1.30848045 0.10243240 -0.82192083
C  0.97955997 -1.05332237 0.57162219
C  1.09705996 -1.02273360 0.38138362
C  1.00813074 -1.15494691 0.22146383
C  -0.14261468 -0.27364537 1.51751961
C  1.31124700 0.47283408 0.67209546
C  1.21939521 0.22865596 0.92743372
C  0.52119080 1.37864685 -0.47358724
C  0.50383733 1.43983371 -0.25612997
C  1.34910056 -0.24627677 -0.71809810
C  1.43954870 -0.11475271 -0.55699643
C  1.41413134 0.10144467 -0.62030248
C  0.01269362 -1.19297214 -0.98671947
C  0.06921271 -1.04067728 -1.14409852
C  -0.82679554 -1.27370667 0.30107371
C  -0.72078323 -1.27522381 0.50065203
C  0.29368695 -1.01128957 -1.13567946
C  0.37399785 -1.14525624 -0.97161517
C  0.20097521 -1.25703337 -0.88037119
C  -0.01785156 0.59331118 -1.43081345
C  -0.18153568 0.44194722 -1.47208368
C  -0.08193159 0.24528049 -1.52601758
C  0.69324271 1.37702367 -0.15079069
C  1.33590846 0.25780252 0.73528054
C  -0.97939821 1.05338732 -0.57109478
C  -0.06958350 1.04067509 1.14390469
C  -0.01255094 1.19293957 0.98676951
C  -1.41425285 -0.10154424 0.62022200
C  -1.30826621 -0.10232655 0.82210029
C  -0.83360917 1.26619190 -0.31286856
C  -1.00852101 1.15490225 -0.22134474
C  -1.09702408 1.02267912 -0.38156000
C  0.82703044 1.27367433 -0.30099778
C  0.72077163 1.27518531 -0.50044412
C  -0.29340471 1.01137545 1.13545760
C  -0.20112392 1.25711294 0.88019160
C  0.01789120 -0.59320190 1.43089986
C  0.18136015 -0.44199611 1.47192299
C  -1.43936935 0.11490382 0.55715996
C  -1.34899084 0.24606974 0.71806758
C  -1.26822494 0.11120867 0.88128129
C  -1.12097577 -0.42370517 -0.98006631
C  -1.17714425 -0.57551408 -0.82331249
C  0.14249857 0.27372715 -1.51737009
C  0.18088705 0.48905864 -1.45684416
C  -1.31145202 -0.47287046 -0.67208174
C  -1.33604940 -0.25773621 -0.73519632
C  -1.21919183 -0.22860446 -0.92760851
C  -0.52144609 -1.37847348 0.47359820
C  -0.50350650 -1.44007211 0.25664664
C  -0.69380137 -1.37655719 0.15040577
C  0.08227182 -0.24552288 1.52589440
C  -0.37394282 1.14517923 0.97172225
C  -0.18075963 -0.48918421 1.45669719
C  -0.81751821 1.20404522 -0.52940519
60
MD Step 3 Units = [eV / Ang.]
C  0.85609187 -1.07811063 0.40393759
C  0.85900129 -1.09120783 0.35654610
C  1.13843557 0.40536913 0.77153717
C  1.12645529 0.37246825 0.80598748
C  1.24606661 -0.06224373 -0.70802129
C  1.25521113 -0.01605578 -0.69431789
C  0.89064479 -1.04496031 0.41284093
C  0.91596707 -1.03837146 0.37150017
C  0.89732580 -1.06755494 0.33697191
C  -0.03778033 -0.35127673 1.39010263
C  1.16755335 0.38277462 0.73826239
C  1.14808171 0.33089075 0.79467833
C  0.58053732 1.26533024 -0.34382486
C  0.57662163 1.27769771 -0.29620841
C  1.26357292 -0.09230479 -0.67152481
C  1.28334299 -0.06366003 -0.63581554
C  1.27786307 -0.01609435 -0.64908427
C  0.13900881 -1.06802397 -0.94701892
C  0.15103442 -1.03465243 -0.98135803
C  -0.64748624 -1.24232613 0.30629887
C  -0.62428956 -1.24266681 0.34962113
C  0.20009117 -1.02817374 -0.98030472
C  0.21706565 -1.05732816 -0.94371842
C  0.17992770 -1.08143610 -0.92394476
C  0.00200486 0.42215491 -1.37134263
C  -0.03387602 0.38866615 -1.37937476
C  -0.01133779 0.34562878 -1.39141967
C  0.61861262 1.26552166 -0.27383055
C  1.17240801 0.33614104 0.75144119
C  -0.89054638 1.04502844 -0.41250560
C  -0.15122300 1.03468041 0.98130868
C  -0.13886406 1.06794717 0.94711493
C  -1.27803682 0.01596518 0.64897734
C  -1.25490993 0.01619468 0.69456560
C  -0.85889646 1.09134438 -0.35684344
C  -0.89788894 1.06753292 -0.33674443
C  -0.91595151 1.03828710 -0.37165723
C  0.64771826 1.24231679 -0.30623978
C  0.62424809 1.24260989 -0.34927476
C  -0.19976876 1.02828590 0.97997400
C  -0.18012800 1.08155051 0.92368072
C  -0.00195477 -0.42199742 1.37142798
C  0.03374526 -0.38874637 1.37930053
C  -1.28318177 0.06388619 0.63595586
C  -1.26345514 0.09208725 0.67154337
C  -1.24624987 0.06229495 0.70713529
C  -1.12655830 -0.37257750 -0.80541466
C  -1.13807254 -0.40534457 -0.77146616
C  0.03762165 0.35136862 -1.38990701
C  0.04503364 0.39889922 -1.37614619
C  -1.16778246 -0.38284857 -0.73828525
C  -1.17259341 -0.33606856 -0.75132705
C  -1.14777956 -0.33085143 -0.79488347
C  -0.58092830 -1.26505718 0.34389438
C  -0.57632364 -1.27803586 0.29659102
C  -0.61901407 -1.26498414 0.27358402
C  0.01174448 -0.34597855 1.39113322
C  -0.21702496 1.05724064 0.94385147
C  -0.04484415 -0.39907188 1.37592843
C  -0.85629034 1.07784647 -0.40388819
60
MD Step 4 Units = [eV / Ang.]
C  0.90245969 -0.91105385 0.24049017
C  0.88811804 -0.86123401 0.41167743
C  1.08335052 0.18433995 0.70161472
C  1.12899349 0.30499266 0.57763447
C  1.21253426 0.00112481 -0.48084816
C  1.18133402 -0.16877618 -0.52694532
C  0.77236440 -1.02984630 0.20647095
C  0.67873358 -1.05422462 0.35723483
C  0.75079815 -0.95048646 0.48447022
C  0.09752840 -0.44991601 1.22007181
C  0.97750314 0.26510252 0.82050539
C  1.05141101 0.46130201 0.62025455
C  0.65465645 1.11400799 -0.17516962
C  0.66806434 1.06344591 -0.34658241
C  1.14809805 0.10655791 -0.60872703
C  1.07667570 0.00243988 -0.73479365
C  1.09691590 -0.16753707 -0.68351424
C  0.30128665 -0.90253044 -0.89192037
C  0.25584571 -1.02261738 -0.76753787
C  -0.41367284 -1.19673359 0.31175194
C  -0.49732278 -1.19555095 0.15347039
C  0.07860980 -1.04569664 -0.77592020
C  0.01388511 -0.93960974 -0.90386410
C  0.15203970 -0.85059960 -0.97629205
C  0.02759658 0.19977205 -1.28900803
C  0.15658903 0.31837228 -1.25417340
C  0.07967274 0.47356830 -1.21214181
C  0.51982319 1.11654746 -0.43132716
C  0.95679162 0.43571578 0.76919003
C  -0.77234554 1.02990934 -0.20635230
C  -0.25583681 1.02267433 0.76764822
C  -0.30115602 0.90241278 0.89205061
C  -1.09712737 0.16739020 0.68339102
C  -1.18096215 0.16893631 0.52724103
C  -0.88796197 0.86143461 -0.41202743
C  -0.75150829 0.95049491 -0.48414430
C  -0.67873603 1.05411545 -0.35736346
C  0.41388298 1.19674697 -0.31171668
C  0.49725418 1.19548094 -0.15300248
C  -0.07826317 1.04582639 0.77550484
C  -0.15227814 0.85073885 0.97595803
C  -0.02753824 -0.19957456 1.28908669
C  -0.15664897 -0.31848917 1.25418865
C  -1.07655297 -0.00215592 0.73489321
C  -1.14797607 -0.10676848 0.60879038
C  -1.21275856 -0.00106477 0.47974488
C  -1.12909647 -0.30510572 -0.57694081
C  -1.08300053 -0.18432238 -0.70146384
C  -0.09771686 0.45000753 -1.21984253
C  -0.13029158 0.28102291 -1.26640576
C  -0.97774352 -0.26521118 -0.82056799
C  -0.95700843 -0.43564247 -0.76905464
C  -1.05102693 -0.46127920 -0.62047043
C  -0.65515800 -1.11364980 0.17529344
C  -0.66782367 -1.06386199 0.34682000
C  -0.52003657 -1.11595864 0.43122959
C  -0.07923054 -0.47400316 1.21170406
C  -0.01386426 0.93952141 0.90401262
C  0.13052714 -0.28123128 1.26612768
C  -0.90270028 0.91072914 -0.24040378
60
MD Step 5 Units = [eV / Ang.]
C  0.94920531 -0.71279449 0.05118679
C  0.91516090 -0.59116636 0.47199296
C  1.01237331 -0.07061736 0.61633622
C  1.12382491 0.22535244 0.31136952
C  1.16537313 0.07386143 -0.21661097
C  1.08807671 -0.34285418 -0.33108005
C  0.63110460 -1.00511302 -0.03182688
C  0.40161496 -1.06485621 0.33831511
C  0.57726410 -0.80932266 0.65026529
C  0.25211865 -0.55991535 1.01617466
C  0.75239882 0.12817168 0.90900656
C  0.93293914 0.60765529 0.41562979
C  0.73503748 0.93235214 0.01961074
C  0.76821481 0.80998136 -0.40186330
C  1.00735182 0.33400176 -0.53231317
C  0.83178999 0.07826454 -0.84311597
C  0.88139132 -0.34013505 -0.71813873
C  0.48538109 -0.70612900 -0.82228974
C  0.37426737 -1.00148353 -0.51667116
C  -0.14238796 -1.13583312 0.31576403
C  -0.34805350 -1.13290356 -0.07274595
C  -0.06136634 -1.05831929 -0.53577557
C  -0.21936427 -0.79778066 -0.85165720
C  0.11893078 -0.57959390 -1.02937071
C  0.05676633 -0.05686970 -1.18527983
C  0.37403079 0.23542339 -1.10150995
C  0.18352419 0.61700762 -0.99770434
C  0.40271191 0.93757205 -0.60899620
C  0.70249789 0.54684682 0.78406745
C  -0.63117602 1.00516432 0.03171559
C  -0.37405174 1.00156889 0.51694859
C  -0.48527212 0.70597944 0.82244375
C  -0.88163018 0.33997499 0.71801134
C  -1.08764940 0.34302694 0.33140185
C  -0.91497300 0.59141413 -0.47238123
C  -0.57809150 0.80936679 -0.64986258
C  -0.40163264 1.06472704 -0.33840219
C  0.14255823 1.13587182 -0.31575263
C  0.34795938 1.13283078 0.07330438
C  0.06171379 1.05845807 0.53530885
C  -0.11919766 0.57974868 1.02897803
C  -0.05670259 0.05709128 1.18534526
C  -0.37400225 -0.23557401 1.10161999
C  -0.83171652 -0.07793633 0.84316144
C  -1.00723105 -0.33419535 0.53240836
C  -1.16562543 -0.07379824 0.21536690
C  -1.12391842 -0.22546994 -0.31060876
C  -1.01204006 0.07062807 -0.61611046
C  -0.25232898 0.55999103 -1.01591889
C  -0.33056194 0.14373101 -1.13138316
C  -0.75264483 -0.12831160 -0.90910770
C  -0.70273489 -0.54677822 -0.78391816
C  -0.93249069 -0.60764471 -0.41584060
C  -0.73561820 -0.93193415 -0.01943651
C  -0.76805923 -0.81044702 0.40195359
C  -0.40270969 -0.93695786 0.60904773
C  -0.18306957 -0.61750143 0.99713040
C  0.21936283 0.79770104 0.85181285
C  0.33082839 -0.14395744 1.13105510
C  -0.94947227 0.71242890 -0.05106055
60
MD Step 6 Units = [eV / Ang.]
C  0.98761055 -0.49614180 -0.14853288
C  0.93321997 -0.30038858 0.53008456
C  0.92622985 -0.33799884 0.51962925
C  1.10564827 0.13900445 0.02768278
C  1.10255027 0.14955732 0.06388278
C  0.97762612 -0.52210431 -0.12127557
C  0.47536310 -0.96768519 -0.28212201
C  0.10554758 -1.06395345 0.31458430
C  0.38817022 -0.65164291 0.81728928
C  0.41188130 -0.66929594 0.79014037
C  0.50707660 -0.01731232 0.99178593
C  0.79773548 0.75471185 0.19565787
C  0.81126077 0.73067748 0.22426350
C  0.86484496 0.53419995 -0.45541943
C  0.84787165 0.56945429 -0.44590791
C  0.56475893 0.15712352 -0.94749384
C  0.64466902 -0.51783670 -0.74642316
C  0.67354317 -0.49150944 -0.73971130
C  0.49457095 -0.96789520 -0.24693057
C  0.14459483 -1.05888387 0.31639313
C  -0.18708674 -1.05414213 -0.30989452
C  -0.20791452 -1.05959715 -0.27705705
C  -0.46221616 -0.63953608 -0.78708494
C  0.08274142 -0.28794554 -1.07352621
C  0.08680676 -0.32619006 -1.06271637
C  0.59850477 0.14549992 -0.92843143
C  0.29066822 0.76090282 -0.76080337
C  0.27494061 0.73865804 -0.78899482
C  0.42703899 0.65752942 0.79083695
C  -0.47552584 0.96771957 0.28178845
C  -0.49415591 0.96800714 0.24736510
C  -0.67346501 0.49133618 0.73987692
C  -0.64492159 0.51767225 0.74630265
C  -0.97716257 0.52227535 0.12160232
C  -0.93302228 0.30066564 -0.53049011
C  -0.38907758 0.65172629 -0.81683540
C  -0.10557859 1.06381003 -0.31462181
C  -0.14447642 1.05894846 -0.31640359
C  0.18697312 1.05407756 0.31050143
C  0.20823784 1.05973453 0.27658272
C  -0.08302535 0.28810481 1.07309032
C  -0.08674077 0.32641949 1.06276241
C  -0.59837586 -0.14567875 0.92863349
C  -0.56473989 -0.15676966 0.94747829
C  -0.84775792 -0.56962383 0.44601766
C  -1.10281608 -0.14949008 -0.06517235
C  -1.10572210 -0.13912898 -0.02692522
C  -0.92591795 0.33799999 -0.51933714
C  -0.41210382 0.66934342 -0.78986692
C  -0.53747752 -0.00232140 -0.97651159
C  -0.50731823 0.01714975 -0.99192417
C  -0.42728264 -0.65747167 -0.79068256
C  -0.79724512 -0.75470877 -0.19584805
C  -0.81188514 -0.73022747 -0.22404399
C  -0.86479735 -0.53468113 0.45537120
C  -0.27471318 -0.73805185 0.78917785
C  -0.29022102 -0.76141915 0.76012456
C  0.46219087 0.63947389 0.78723835
C  0.53775413 0.00209175 0.97614788
C  -0.98788718 0.49575707 0.14869593
60
MD Step 7 Units = [eV / Ang.]
C  1.00799287 -0.27661300 -0.34045832
C  0.93472120 -0.01208529 0.57751674
C  0.82639748 -0.59252827 0.41649436
C  1.06890926 0.05251508 -0.24910043
C  1.02238645 0.22070593 0.33599623
C  0.85322611 -0.68767663 0.08513251
C  0.31553043 -0.91456013 -0.52097202
C  -0.18457529 -1.04473875 0.28606572
C  0.19734848 -0.48686795 0.96584276
C  0.56035873 -0.76429744 0.55640699
C  0.25945957 -0.15867130 1.05529831
C  0.65234347 0.88489948 -0.02192424
C  0.87151099 0.52169966 0.41966929
C  0.94403323 0.25648570 -0.49969535
C  0.67797273 0.78890365 -0.35410086
C  0.29501351 0.23119283 -1.03280305
C  0.40304222 -0.68195851 -0.76111596
C  0.84517200 -0.27404496 -0.64655229
C  0.60318236 -0.91851433 0.01997296
C  0.42155689 -0.96571088 0.31154631
C  -0.02712124 -0.95927703 -0.53549359
C  -0.34703545 -1.04259257 -0.02032788
C  -0.69071354 -0.47442116 -0.71065473
C  0.04606658 0.00100168 -1.09802499
C  0.11456524 -0.58282315 -0.92505667
C  0.80676280 0.05543312 -0.74390895
C  0.38997985 0.88792260 -0.51700058
C  0.14577705 0.53222646 -0.95068921
C  0.15146103 0.75396880 0.78381786
C  -0.31577493 0.91457426 0.52044796
C  -0.60259324 0.91864962 -0.01941113
C  -0.84513159 0.27385800 0.64671741
C  -0.40329479 0.68179940 0.76101283
C  -0.85274791 0.68782973 -0.08482050
C  -0.93453925 0.01236781 -0.57791857
C  -0.19828998 0.48698975 -0.96537149
C  0.18453364 1.04458728 -0.28604909
C  -0.42150057 0.96580096 -0.31157644
C  0.02699795 0.95923256 0.53609992
C  0.34731033 1.04271753 0.01989747
C  -0.04635538 -0.00085281 1.09756391
C  -0.11449857 0.58304643 0.92507698
C  -0.80653216 -0.05563224 0.74419434
C  -0.29504601 -0.23083520 1.03272581
C  -0.67787191 -0.78904302 0.35420673
C  -1.02265193 -0.22063213 -0.33722514
C  -1.06895278 -0.05265139 0.24977638
C  -0.82611004 0.59252119 -0.41614742
C  -0.56058685 0.76431064 -0.55612022
C  -0.72969868 -0.14450042 -0.80888347
C  -0.25968664 0.15849292 -1.05547078
C  -0.15169595 -0.75392736 -0.78366734
C  -0.65183480 -0.88489798 0.02176623
C  -0.87214173 -0.52124750 -0.41940978
C  -0.94410823 -0.25694966 0.49952581
C  -0.14533205 -0.53166434 0.95097218
C  -0.38955418 -0.88841964 0.51625850
C  0.69066188 0.47438594 0.71079701
C  0.72996340 0.14428129 0.80849939
C  -1.00826208 0.27623476 0.34065155
60
MD Step 8 Units = [eV / Ang.]
C  1.00038500 -0.07138936 -0.50485384
C  0.91196631 0.24834252 0.60541550
C  0.71502377 -0.80689561 0.31267283
C  1.00820365 -0.02688919 -0.49247924
C  0.92369412 0.27921647 0.57294226
C  0.71897844 -0.81935071 0.26920833
C  0.16318844 -0.84303218 -0.72302708
C  -0.44159647 -1.00045185 0.25296570
C  0.02007688 -0.32563362 1.07495515
C  0.67987600 -0.83033223 0.33115169
C  0.02934574 -0.28211342 1.08537734
C  0.50434409 0.97953337 -0.21769679
C  0.90340084 0.31968162 0.58515242
C  0.99112658 -0.00066610 -0.52673825
C  0.50719498 0.96654824 -0.26214605
C  0.04402915 0.29204879 -1.08313248
C  0.17461927 -0.81246549 -0.75475909
C  0.97823448 -0.07075249 -0.54582055
C  0.68561679 -0.85026959 0.26027012
C  0.66059074 -0.85673862 0.29913058
C  0.11791322 -0.84893126 -0.72525118
C  -0.46361340 -1.00036950 0.21186737
C  -0.87904760 -0.31319523 -0.62337539
C  0.01177647 0.26167218 -1.09180709
C  0.13665858 -0.79934849 -0.77698617
C  0.97385178 -0.02725771 -0.55824523
C  0.46951996 0.97964585 -0.28367554
C  0.02547223 0.33222384 -1.07207642
C  -0.10108303 0.82153206 0.75728620
C  -0.16349452 0.84302458 0.72236763
C  -0.68489223 0.85042562 -0.25962980
C  -0.97823740 0.07056094 0.54597361
C  -0.17485858 0.81232128 0.75468267
C  -0.71850647 0.81946888 -0.26892479
C  -0.91182517 -0.24807645 -0.60579298
C  -0.02100578 0.32578832 -1.07450457
C  0.44154704 1.00029900 -0.25289389
C  -0.66060010 0.85685237 -0.29917436
C  -0.11803456 0.84891984 0.72580295
C  0.46381301 1.00047212 -0.21220088
C  -0.01206046 -0.26154709 1.09133883
C  -0.13659127 0.79954996 0.77697614
C  -0.97352893 0.02704856 0.55859901
C  -0.04410058 -0.29170992 1.08300024
C  -0.50711226 -0.96665645 0.26222762
C  -0.92394725 -0.27913160 -0.57400195
C  -1.00820577 0.02673237 0.49299302
C  -0.71476118 0.80687962 -0.31228619
C  -0.68010589 0.83030851 -0.33085227
C  -0.88431378 -0.26906368 -0.63678387
C  -0.02954565 0.28193128 -1.08558245
C  0.10087122 -0.82151153 -0.75714832
C  -0.50384209 -0.97952403 0.21757906
C  -0.90400089 -0.31925974 -0.58485817
C  -0.99133480 0.00025415 0.52647167
C  -0.02483191 -0.33174633 1.07241482
C  -0.46912205 -0.98007529 0.28292177
C  0.87897102 0.31319354 0.62349890
C  0.88454055 0.26886540 0.63639683
C  -1.00063025 0.07104346 0.50506463
60
MD Step 9 Units = [eV / Ang.]
C  0.95545756 0.10248774 -0.62245713
C  0.85782020 0.45588832 0.60532439
C  0.59461347 -0.95450837 0.21401729
C  0.91871979 -0.09206321 -0.67648307
C  0.80579306 0.31723059 0.74850921
C  0.57932589 -0.89755649 0.41235263
C  0.02988730 -0.75087388 -0.86358792
C  -0.63887631 -0.92493781 0.21562378
C  -0.12851024 -0.17863607 1.12444928
C  0.75330870 -0.85340684 0.13055986
C  -0.16365885 -0.37414668 1.06858702
C  0.36151164 1.02064278 -0.37255743
C  0.89515153 0.13891260 0.70056612
C  0.99215873 -0.21500342 -0.52896244
C  0.34524928 1.07737911 -0.17537975
C  -0.16691851 0.33151129 -1.08331630
C  -0.02258473 -0.88996582 -0.72037453
C  1.05144674 0.10148929 -0.44078464
C  0.72790590 -0.76057677 0.45057695
C  0.83442977 -0.73284464 0.27723430
C  0.23429230 -0.72417692 -0.85551006
C  -0.54293499 -0.92659651 0.39732548
C  -1.00215395 -0.16667290 -0.52657527
C  -0.01727764 0.46889814 -1.04451241
C  0.14981354 -0.94906025 -0.62355836
C  1.07559833 -0.09514637 -0.38193421
C  0.51772434 1.01836521 -0.07817969
C  -0.07581804 0.15263145 -1.13195461
C  -0.30774057 0.84618271 0.70598092
C  -0.03022245 0.75084484 0.86286933
C  -0.72710101 0.76074962 -0.44992470
C  -1.05149536 -0.10167422 0.44091544
C  0.02237056 0.88984397 0.72033272
C  -0.57888240 0.89762084 -0.41210904
C  -0.85774616 -0.45566195 -0.60565754
C  0.12764444 0.17881754 -1.12405945
C  0.63881921 0.92478851 -0.21549858
C  -0.83450387 0.73298006 -0.27728623
C  -0.23439949 0.72420996 0.85595587
C  0.54303802 0.92666804 -0.39751263
C  0.01700833 -0.46881126 1.04405441
C  -0.14974517 0.94922790 0.62351422
C  -1.07520590 0.09494115 0.38233456
C  0.16683077 -0.33121724 1.08314329
C  -0.34518933 -1.07745311 0.17541870
C  -0.80602263 -0.31713116 -0.74930208
C  -0.91867214 0.09188085 0.67676400
C  -0.59437527 0.95448298 -0.21360575
C  -0.75353637 0.85334774 -0.13024646
C  -0.97912138 -0.36255019 -0.46875086
C  0.16349704 0.37397116 -1.06882221
C  0.30756354 -0.84618686 -0.70586406
C  -0.36103950 -1.02061659 0.37248464
C  -0.89568775 -0.13855150 -0.70024259
C  -0.99250217 0.21467272 0.52862675
C  0.07661666 -0.15227962 1.13229438
C  -0.51735597 -1.01867757 0.07747252
C  1.00205681 0.16670919 0.52667391
C  0.97928825 0.36238238 0.46837784
C  -0.95566356 -0.10277449 0.62267019
60
MD Step 10 Units = [eV / Ang.]
C  0.86565758 0.23047478 -0.67706720
C  0.76656801 0.58936293 0.57028523
C  0.46757899 -1.01304314 0.12563322
C  0.79675773 -0.13693300 -0.77918432
C  0.66846677 0.32816614 0.84059515
C  0.43833540 -0.90594968 0.49883195
C  -0.07447831 -0.63652023 -0.92191565
C  -0.75390719 -0.81334992 0.17442637
C  -0.23551982 -0.05511152 1.09756618
C  0.76634280 -0.82193107 -0.03145357
C  -0.30285151 -0.42339763 0.99391480
C  0.23066122 0.99331355 -0.47032680
C  0.83709058 -0.00831687 0.74898948
C  0.93563074 -0.36758608 -0.50011992
C  0.20060071 1.10048611 -0.09844617
C  -0.31970316 0.34273430 -1.02087214
C  -0.17316121 -0.89826769 -0.65231569
C  1.04707089 0.22827961 -0.33444157
C  0.71843321 -0.64756836 0.57109255
C  0.92012198 -0.59511244 0.24434948
C  0.31037462 -0.58626020 -0.90641384
C  -0.57265644 -0.81627524 0.51722499
C  -1.03904000 -0.04418506 -0.42163076
C  -0.03866454 0.60135841 -0.94774978
C  0.15129771 -1.00953825 -0.46938074
C  1.09181017 -0.14192382 -0.22412515
C  0.52493130 0.98938761 0.08459838
C  -0.14943490 0.00548518 -1.11268933
C  -0.44909424 0.81629468 0.62571797
C  0.07415091 0.63647003 0.92122311
C  -0.71761069 0.64775363 -0.57050173
C  -1.04716615 -0.22844593 0.33454066
C  0.17298249 0.89817459 0.65231562
C  -0.43794029 0.90594412 -0.49863884
C  -0.76658646 -0.58919536 -0.57055273
C  0.23476424 0.05531153 -1.09727902
C  0.75384356 0.81320964 -0.17425160
C  -0.92025332 0.59526736 -0.24440244
C  -0.31046234 0.58634720 0.90671132
C  0.57265054 0.81631240 -0.51722732
C  0.03841851 -0.60132114 0.94731897
C  -0.15122612 1.00965938 0.46929965
C  -1.09137973 0.14173640 0.22454854
C  0.31962888 -0.34251001 1.02067622
C  -0.20056847 -1.10052345 0.09842593
C  -0.66866349 -0.32805041 -0.84104392
C  -0.79665192 0.13672175 0.77918139
C  -0.46736411 1.01300604 -0.12521469
C  -0.76656352 0.82184095 0.03178566
C  -0.99557072 -0.41360724 -0.31230325
C  0.30273773 0.42324013 -0.99417681
C  0.44896192 -0.81632539 -0.62563125
C  -0.23024134 -0.99326055 0.47030160
C  -0.83753300 0.00858786 -0.74864336
C  -0.93610313 0.36735904 0.49974659
C  0.15034405 -0.00529581 1.11297651
C  -0.52459187 -0.98953696 -0.08520297
C  1.03892904 0.04426059 0.42169932
C  0.99565775 0.41347715 0.31195940
C  -0.86581204 -0.23068062 0.67726631
60
MD Step 11 Units = [eV / Ang.]
C  0.72646019 0.30299983 -0.65826509
C  0.63485548 0.63497718 0.49598755
C  0.33580953 -0.96820596 0.05100210
C  0.64031677 -0.15752083 -0.78638326
C  0.51196879 0.30781885 0.83491557
C  0.29898565 -0.83415381 0.51843765
C  -0.14335326 -0.49930775 -0.88471905
C  -0.77210606 -0.66293655 0.12973367
C  -0.29249095 0.03874337 0.98378218
C  0.70988200 -0.72865867 -0.14562491
C  -0.37726287 -0.42252135 0.85460217
C  0.11647911 0.88818331 -0.50048753
C  0.72326402 -0.11380716 0.71956988
C  0.81442961 -0.44599785 -0.43633620
C  0.07901781 1.02256864 -0.03449936
C  -0.40242132 0.32135181 -0.88807460
C  -0.26692783 -0.82709544 -0.54720105
C  0.95389124 0.30014272 -0.22899190
C  0.64986791 -0.51038629 0.60894446
C  0.90288404 -0.44462144 0.19961306
C  0.33857962 -0.43636584 -0.86524286
C  -0.54487516 -0.66655668 0.55930468
C  -0.97631114 0.04801337 -0.30970974
C  -0.05078373 0.64518047 -0.79648358
C  0.13937356 -0.96641550 -0.31780610
C  1.00966323 -0.16346428 -0.09105924
C  0.48500325 0.88349075 0.19476745
C  -0.18968957 -0.10116960 -1.00317032
C  -0.51245211 0.72459049 0.51408022
C  0.14307088 0.49924031 0.88414027
C  -0.64909538 0.51057731 -0.60848696
C  -0.95402939 -0.30027783 0.22905080
C  0.26678975 0.82703574 0.54724578
C  -0.29865510 0.83406728 -0.51830067
C  -0.63498361 -0.63488186 -0.49617302
C  0.29188603 -0.03853325 -0.98362612
C  0.77203594 0.66280882 -0.12951900
C  -0.90306155 0.44479026 -0.19966083
C  -0.33864858 0.43651223 0.86536775
C  0.54475838 0.66655599 -0.55910503
C  0.05056972 -0.64520139 0.79609560
C  -0.13929752 0.96647993 0.31769110
C  -1.00923072 0.16330958 0.09147420
C  0.40239197 -0.32122094 0.88788128
C  -0.07901826 -1.02256575 0.03440973
C  -0.51212352 -0.30769203 -0.83498459
C  -0.64015432 0.15728390 0.78608348
C  -0.33561473 0.96815330 -0.05059657
C  -0.71008916 0.72854421 0.14597309
C  -0.92186517 -0.41490130 -0.17264668
C  0.37720282 0.42239208 -0.85488597
C  0.51237215 -0.72464709 -0.51403065
C  -0.11612866 -0.88810043 0.50051106
C  -0.72358883 0.11396928 -0.71921483
C  -0.81501175 0.44588498 0.43595894
C  0.19065446 0.10117679 1.00335367
C  -0.48469340 -0.88344390 -0.19522080
C  0.97619501 -0.04790109 0.30974658
C  0.92185880 0.41481685 0.17234635
C  -0.72655409 -0.30310775 0.65843616
60
MD Step 12 Units = [eV / Ang.]
C  0.53752835 0.31741865 -0.56369508
C  0.46257944 0.58924351 0.38181388
C  0.20043822 -0.81686598 -0.00865428
C  0.44975053 -0.15277600 -0.69468237
C  0.33718119 0.25530352 0.72811369
C  0.16270811 -0.68009998 0.46864557
C  -0.17483064 -0.33980242 -0.74906863
C  -0.68993752 -0.47384099 0.08186387
C  -0.29712887 0.10097924 0.78121413
C  0.58208313 -0.57236660 -0.20916485
C  -0.38391537 -0.36980010 0.64978879
C  0.02066619 0.70360370 -0.46039633
C  0.55286172 -0.17506972 0.60990916
C  0.62752102 -0.44691433 -0.33704246
C  -0.01750377 0.84091163 0.01538678
C  -0.41184002 0.26645067 -0.68380783
C  -0.30098366 -0.67439982 -0.40477707
C  0.76975274 0.31446341 -0.12550502
C  0.52084853 -0.34954707 0.56090377
C  0.77932058 -0.28241554 0.14305897
C  0.31696940 -0.27556097 -0.72921418
C  -0.45787431 -0.47755142 0.52044859
C  -0.81114683 0.10795893 -0.19167107
C  -0.05319142 0.59687277 -0.59032777
C  0.11369820 -0.81653509 -0.17042394
C  0.82657302 -0.15868480 0.01510229
C  0.39670268 0.69905193 0.24941096
C  -0.19502785 -0.16487323 -0.80134668
C  -0.49449141 0.56984258 0.37107770
C  0.17462820 0.33972130 0.74867842
C  -0.52018841 0.34973897 -0.56063966
C  -0.76993099 -0.31455571 0.12551813
C  0.30089264 0.67437502 0.40487189
C  -0.16245685 0.67992595 -0.46857568
C  -0.46283552 -0.58922788 -0.38189655
C  0.29670889 -0.10076492 -0.78121992
C  0.68986120 0.47372949 -0.08161796
C  -0.77952803 0.28259413 -0.14309770
C  -0.31702677 0.27576805 0.72915992
C  0.45765858 0.47751980 -0.52004858
C  0.05301694 -0.59695955 0.58999705
C  -0.11361472 0.81653859 0.17027407
C  -0.82617835 0.15857672 -0.01471989
C  0.41188677 -0.26643352 0.68363861
C  0.01746507 -0.84085936 -0.01555242
C  -0.33728589 -0.25517559 -0.72779632
C  -0.44953252 0.15252478 0.69409914
C  -0.20026220 0.81679195 0.00902917
C  -0.58226520 0.57223438 0.20953201
C  -0.75561356 -0.36469167 -0.05174049
C  0.38391180 0.36970596 -0.65008980
C  0.49446842 -0.56992347 -0.37107502
C  -0.02039807 -0.70348998 0.46047295
C  -0.55305700 0.17510857 -0.60955897
C  -0.62818503 0.44691475 0.33669081
C  0.19599211 0.16468922 0.80139322
C  -0.39642794 -0.69879217 -0.24968153
C  0.81103660 -0.10781597 0.19167623
C  0.75550770 0.36465903 0.05149326
C  -0.53755921 -0.31742335 0.56382502
60
MD Step 13 Units = [eV / Ang.]
C  0.30357617 0.27893220 -0.40028548
C  0.25360614 0.46043980 0.23149393
C  0.06195217 -0.56879118 -0.05460162
C  0.22836570 -0.12498196 -0.51305584
C  0.14596629 0.17357764 0.52936954
C  0.02939544 -0.45137370 0.35574301
C  -0.17224368 -0.16021102 -0.52400380