60
MD Step 0 Units = [Angstroms]
C  -2.96219017 2.11017017 -0.06479000
C  -2.84897017 1.69937017 -1.49226000
C  -3.10217017 0.34396017 -1.86797000
C  -3.47934017 -0.65812983 -0.83219000
C  -3.58792017 -0.26404983 0.53723000
C  -3.32398017 1.14884017 0.92888000
C  -1.88684017 3.10235017 0.21536000
C  -1.10906017 3.30478017 -1.03897000
C  -1.70372017 2.43771017 -2.09435000
C  -0.85822017 1.79058017 -3.04767000
C  -2.22085017 -0.33054983 -2.86170000
C  -2.83112017 -1.95198983 -1.18582000
C  -2.31780017 -2.79908983 -0.15561000
C  -2.43096017 -2.38825983 1.27184000
C  -3.05283017 -1.14705983 1.61109000
C  -2.45819017 -0.27993983 2.66641000
C  -2.62576017 1.13898017 2.24477000
C  -1.59421017 2.09085017 2.51357000
C  -1.21706017 3.09292017 1.47779000
C  0.30683983 3.48954017 -0.97986000
C  1.00499983 3.47969017 0.33609000
C  0.25885983 3.28550017 1.53942000
C  0.79389983 2.40243017 2.61326000
C  -0.35136017 1.66409017 3.21534000
C  -0.19060017 0.30286017 3.61984000
C  -1.26589017 -0.68932983 3.33964000
C  -0.61770017 -1.98316983 2.98605000
C  -1.18815017 -2.81504983 1.97364000
C  -2.05328017 -1.74948983 -2.44008000
C  1.88683983 -3.10234983 -0.21537000
C  1.21706983 -3.09291983 -1.47779000
C  1.59420983 -2.09084983 -2.51357000
C  2.62575983 -1.13897983 -2.24477000
C  3.32397983 -1.14883983 -0.92888000
C  2.84896983 -1.69936983 1.49226000
C  1.70371983 -2.43770983 2.09435000
C  1.10905983 -3.30477983 1.03897000
C  -0.30684017 -3.48953983 0.97986000
C  -1.00500017 -3.47968983 -0.33609000
C  -0.25886017 -3.28549983 -1.53942000
C  0.35135983 -1.66408983 -3.21534000
C  0.19059983 -0.30285983 -3.61984000
C  1.26588983 0.68933017 -3.33963000
C  2.45818983 0.27994017 -2.66641000
C  3.05282983 1.14706017 -1.61109000
C  3.58791983 0.26405017 -0.53723000
C  3.47933983 0.65813017 0.83219000
C  3.10215983 -0.34395983 1.86797000
C  0.85821983 -1.79057983 3.04767000
C  1.12219983 -0.37773983 3.43932000
C  2.22084983 0.33055017 2.86170000
C  2.05327983 1.74949017 2.44008000
C  2.83111983 1.95199017 1.18582000
C  2.31779983 2.79909017 0.15561000
C  2.43095983 2.38826017 -1.27185000
C  1.18815983 2.81504017 -1.97363000
C  0.61769983 1.98317017 -2.98605000
C  -0.79390017 -2.40242983 -2.61326000
C  -1.12220017 0.37774017 -3.43932000
C  2.96218983 -2.11016983 0.06479000
60
MD Step 1 Units = [Angstroms]
C  -2.96187624 2.10964576 -0.06453632
C  -2.84864419 1.69880276 -1.49214889
C  -3.10168651 0.34424856 -1.86762282
C  -3.47889354 -0.65794298 -0.83173992
C  -3.58740360 -0.26410964 0.53682060
C  -3.32343855 1.14892084 0.92850797
C  -1.88641716 3.10192642 0.21564282
C  -1.10855888 3.30437680 -1.03881408
C  -1.70327671 2.43721689 -2.09430084
C  -0.85831213 1.79049707 -3.04702121
C  -2.22027555 -0.33032940 -2.86145239
C  -2.83060770 -1.95193410 -1.18540369
C  -2.31761000 -2.79849992 -0.15584490
C  -2.43078253 -2.38762678 1.27175257
C  -3.05226055 -1.14721036 1.61078685
C  -2.45756108 -0.28000373 2.66621385
C  -2.62514688 1.13906106 2.24453106
C  -1.59424714 2.09033005 2.51316172
C  -1.21706151 3.09250051 1.47727577
C  0.30644804 3.48902006 -0.97974201
C  1.00467859 3.47916813 0.33634155
C  0.25900921 3.28510019 1.53891367
C  0.79410362 2.40194153 2.61286130
C  -0.35127257 1.66352694 3.21500293
C  -0.19061492 0.30315546 3.61924752
C  -1.26601442 -0.68913513 3.33901888
C  -0.61775902 -1.98310569 2.98539386
C  -1.18784881 -2.81446139 1.97362133
C  -2.05268984 -1.74941393 -2.43978971
C  1.88641720 -3.10192607 -0.21565234
C  1.21706967 -3.09250147 -1.47727682
C  1.59424684 -2.09032940 -2.51316187
C  2.62514737 -1.13905973 -2.24453103
C  3.32343597 -1.14892017 -0.92850922
C  2.84864473 -1.69880338 1.49215022
C  1.70328068 -2.43721734 2.09429976
C  1.10855904 -3.30437575 1.03881397
C  -0.30644852 -3.48902051 0.97974200
C  -1.00467797 -3.47916874 -0.33634344
C  -0.25901043 -3.28510171 -1.53891333
C  0.35127340 -1.66352682 -3.21499983
C  0.19061390 -0.30315603 -3.61924662
C  1.26601346 0.68913605 -3.33901081
C  2.45755957 0.28000337 -2.66621397
C  3.05226000 1.14721170 -1.61078698
C  3.58740409 0.26411010 -0.53681688
C  3.47889223 0.65794427 0.83173819
C  3.10167427 -0.34424799 1.86762168
C  0.85831271 -1.79049655 3.04701866
C  1.12231799 -0.37751394 3.43871162
C  2.22027614 0.33033035 2.86145410
C  2.05269030 1.74941417 2.43978984
C  2.83060474 1.95193410 1.18540434
C  2.31761274 2.79849923 0.15584345
C  2.43078315 2.38762943 -1.27176301
C  1.18785704 2.81445019 -1.97361178
C  0.61775645 1.98310710 -2.98539192
C  -0.79410404 -2.40194137 -2.61286151
C  -1.12231920 0.37751487 -3.43870934
C  2.96187704 -2.10964396 0.06453541
60
MD Step 2 Units = [Angstroms]
C  -2.96093433 2.10810428 -0.06380039
C  -2.84767065 1.69714477 -1.49181216
C  -3.10025061 0.34507818 -1.86659758
C  -3.47756191 -0.65739497 -0.83042581
C  -3.58587158 -0.26428201 0.53562558
C  -3.32183383 1.14914204 0.92742095
C  -1.88517367 3.10066419 0.21645805
C  -1.10709785 3.30317121 -1.03835111
C  -1.70197919 2.43576502 -2.09413420
C  -0.85856962 1.79023615 -3.04510657
C  -2.21859029 -0.32968929 -2.86070564
C  -2.82909364 -1.95174852 -1.18418623
C  -2.31703678 -2.79676122 -0.15652001
C  -2.43024232 -2.38577197 1.27148240
C  -3.05057949 -1.14763317 1.60989155
C  -2.45571344 -0.28018415 2.66561605
C  -2.62334519 1.13928126 2.24381523
C  -1.59433739 2.08880237 2.51195199
C  -1.21704910 3.09125355 1.47577373
C  0.30531145 3.48747537 -0.97938817
C  1.00373804 3.47761973 0.33706537
C  0.25943813 3.28390767 1.53742992
C  0.79468235 2.40050169 2.61167903
C  -0.35101525 1.66188002 3.21399041
C  -0.19065377 0.30400653 3.61749192
C  -1.26635651 -0.68856365 3.33718529
C  -0.61791818 -1.98289759 2.98346154
C  -1.18696096 -2.81272634 1.97354492
C  -2.05095940 -1.74917313 -2.43892513
C  1.88517426 -3.10066378 -0.21646654
C  1.21705533 -3.09125583 -1.47577607
C  1.59433724 -2.08880141 -2.51195230
C  2.62334646 -1.13927899 -2.24381521
C  3.32182913 -1.14914098 -0.92742336
C  2.84767202 -1.69714635 1.49181471
C  1.70198727 -2.43576629 2.09413205
C  1.10709854 -3.30316947 1.03835075
C  -0.30531189 -3.48747663 0.97938822
C  -1.00373647 -3.47762129 -0.33706910
C  -0.25944006 -3.28391099 -1.53742932
C  0.35101716 -1.66188008 -3.21398430
C  0.19065209 -0.30400794 -3.61749006
C  1.26635478 0.68856515 -3.33717932
C  2.45571091 0.28018316 -2.66561615
C  3.05057879 1.14763538 -1.60989187
C  3.58587283 0.26428262 -0.53561840
C  3.47755956 0.65739715 0.83042253
C  3.10023676 -0.34507735 1.86659523
C  0.85857105 -1.79023539 3.04510155
C  1.12264755 -0.37685547 3.43690886
C  2.21859166 0.32969086 2.86070907
C  2.05096058 1.74917332 2.43892543
C  2.82908815 1.95174824 1.18418742
C  2.31704249 2.79675956 0.15651708
C  2.43024417 2.38577681 -1.27149278
C  1.18696721 2.81271392 -1.97353622
C  0.61791360 1.98289996 -2.98345764
C  -0.79468281 -2.40050176 -2.61167940
C  -1.12264958 0.37685694 -3.43690439
C  2.96093619 -2.10810111 0.06379856
60
MD Step 3 Units = [Angstroms]
C  -2.95934874 2.10561601 -0.06264879
C  -2.84604074 1.69449167 -1.49122900
C  -3.09788822 0.34635939 -1.86492475
C  -3.47534800 -0.65651397 -0.82834141
C  -3.58334165 -0.26454149 0.53373785
C  -3.31919967 1.14944289 0.92568805
C  -1.88315993 3.09857296 0.21772187
C  -1.10477484 3.30116051 -1.03758804
C  -1.69988912 2.43340483 -2.09379229
C  -0.85893850 1.78975920 -3.04199855
C  -2.21587416 -0.32867777 -2.85942934
C  -2.82662040 -1.95138212 -1.18223990
C  -2.31605286 -2.79393833 -0.15756679
C  -2.42930496 -2.38278524 1.27101030
C  -3.04783727 -1.14824855 1.60843144
C  -2.45273405 -0.28045446 2.66457920
C  -2.62043159 1.13958032 2.24261094
C  -1.59441661 2.08633676 2.50996596
C  -1.21698152 3.08918755 1.47337253
C  0.30352558 3.48492841 -0.97879732
C  1.00223097 3.47506788 0.33818200
C  0.26009744 3.28191905 1.53505356
C  0.79555414 2.39816116 2.60973225
C  -0.35059992 1.65924516 3.21228460
C  -0.19070649 0.30532318 3.61461063
C  -1.26684026 -0.68764476 3.33419381
C  -0.61814124 -1.98249560 2.98032922
C  -1.18552806 -2.80990837 1.97334880
C  -2.04817884 -1.74872876 -2.43748170
C  1.88316118 -3.09857244 -0.21772894
C  1.21698556 -3.08919113 -1.47337630
C  1.59441672 -2.08633550 -2.50996638
C  2.62043352 -1.13957720 -2.24261099
C  3.31919302 -1.14944136 -0.92569147
C  2.84604299 -1.69449416 1.49123257
C  1.69990097 -2.43340695 2.09378917
C  1.10477609 -3.30115812 1.03758730
C  -0.30352580 -3.48493052 0.97879749
C  -1.00222846 -3.47507042 -0.33818738
C  -0.26009984 -3.28192408 -1.53505289
C  0.35060278 -1.65924533 -3.21227564
C  0.19070419 -0.30532533 -3.61460776
C  1.26683763 0.68764679 -3.33419005
C  2.45273065 0.28045297 -2.66457914
C  3.04783652 1.14825145 -1.60843197
C  3.58334356 0.26454228 -0.53372772
C  3.47534454 0.65651694 0.82833692
C  3.09787307 -0.34635827 1.86492120
C  0.85894069 -1.78975814 3.04199121
C  1.12311835 -0.37581281 3.43396009
C  2.21587614 0.32867992 2.85943450
C  2.04818061 1.74872896 2.43748224
C  2.82661256 1.95138160 1.18224148
C  2.31606131 2.79393586 0.15756240
C  2.42930828 2.38279207 -1.27102020
C  1.18553192 2.80989511 -1.97334125
C  0.61813492 1.98249874 -2.98032347
C  -0.79555459 -2.39816152 -2.60973268
C  -1.12312110 0.37581472 -3.43395356
C  2.95935155 -2.10561163 0.06264606
60
MD Step 4 Units = [Angstroms]
C  -2.95709348 2.10228862 -0.06118469
C  -2.84373922 1.69099044 -1.49036627
C  -3.09463748 0.34795312 -1.86265049
C  -3.47225402 -0.65534325 -0.82563162
C  -3.57983890 -0.26484841 0.53130124
C  -3.31558629 1.14972833 0.92341589
C  -1.88045262 3.09566567 0.21930434
C  -1.10174071 3.29833830 -1.03653501
C  -1.69710080 2.43021285 -2.09318435
C  -0.85933435 1.78900598 -3.03780772
C  -2.21224949 -0.32736944 -2.85757476
C  -2.82325206 -1.95075476 -1.17967602
C  -2.31461403 -2.79012978 -0.15887900
C  -2.42791541 -2.37880437 1.27030583
C  -3.04411009 -1.14893231 1.60644789
C  -2.44875596 -0.28077326 2.66304377
C  -2.61652310 1.13986396 2.24089892
C  -1.59438418 2.08303990 2.50724113
C  -1.21679397 3.08631348 1.47020870
C  0.30123827 3.48141178 -0.97796707
C  1.00023858 3.47154612 0.33956808
C  0.26091078 3.27912687 1.53191520
C  0.79659168 2.39499684 2.60704896
C  -0.35004455 1.65576979 3.20985598
C  -0.19075717 0.30696544 3.61065956
C  -1.26734687 -0.68642356 3.33012708
C  -0.61837142 -1.98182119 2.97611325
C  -1.18361373 -2.80610454 1.97293580
C  -2.04448642 -1.74801991 -2.43545090
C  1.88045461 -3.09566499 -0.21930971
C  1.21679567 -3.08631833 -1.47021393
C  1.59438467 -2.08303841 -2.50724158
C  2.61652556 -1.13986010 -2.24089912
C  3.31557795 -1.14972623 -0.92342011
C  2.84374241 -1.69099371 1.49037062
C  1.69711595 -2.43021583 2.09318046
C  1.10174253 -3.29833534 1.03653376
C  -0.30123809 -3.48141472 0.97796741
C  -1.00023518 -3.47154968 -0.33957482
C  -0.26091340 -3.27913352 -1.53191472
C  0.35004819 -1.65576999 -3.20984441
C  0.19075428 -0.30696822 -3.61065561
C  1.26734324 0.68642605 -3.33012558
C  2.44875182 0.28077145 -2.66304345
C  3.04410938 1.14893571 -1.60644862
C  3.57984132 0.26484942 -0.53128889
C  3.47224938 0.65534694 0.82562639
C  3.09462133 -0.34795171 1.86264581
C  0.85933717 -1.78900454 3.03779824
C  1.12362105 -0.37446073 3.42993829
C  2.21225189 0.32737210 2.85758162
C  2.04448864 1.74802017 2.43545176
C  2.82324214 1.95075403 1.17967783
C  2.31462489 2.79012671 0.15887321
C  2.42792043 2.37881292 -1.27031495
C  1.18361489 2.80609088 -1.97292958
C  0.61836370 1.98182481 -2.97610590
C  -0.79659209 -2.39499755 -2.60704935
C  -1.12362435 0.37446293 -3.42992988
C  2.95709706 -2.10228325 0.06118110
60
MD Step 5 Units = [Angstroms]
C  -2.95413666 2.09826157 -0.05954068
C  -2.84074796 1.68683069 -1.48918215
C  -3.09054900 0.34968092 -1.85983505
C  -3.46828459 -0.65393877 -0.82248313
C  -3.57539740 -0.26515193 0.52850090
C  -3.31105995 1.14987680 0.92074187
C  -1.87715123 3.09196050 0.22103861
C  -1.09818987 3.29469808 -1.03520558
C  -1.69373627 2.42628863 -2.09219488
C  -0.85964917 1.78789996 -3.03267774
C  -2.20787456 -0.32586028 -2.85508072
C  -2.81907242 -1.94976450 -1.17663823
C  -2.31266466 -2.78546358 -0.16032024
C  -2.42600422 -2.37400760 1.26933061
C  -3.03949740 -1.14952548 1.60399489
C  -2.44395138 -0.28108751 2.66093466
C  -2.61177141 1.14001163 2.23865557
C  -1.59411167 2.07904991 2.50382697
C  -1.21640384 3.08264704 1.46645836
C  0.29863960 3.47696910 -0.97689489
C  0.99786570 3.46709932 0.34106529
C  0.26178020 3.27552324 1.52818344
C  0.79763183 2.39110873 2.60366649
C  -0.34937241 1.65164419 3.20666832
C  -0.19078541 0.30875367 3.60571239
C  -1.26772443 -0.68495833 3.32509298
C  -0.61853616 -1.98077448 2.97096466
C  -1.18130032 -2.80144099 1.97218207
C  -2.04006081 -1.74696925 -2.43282303
C  1.87715396 -3.09195961 -0.22104222
C  1.21640324 -3.08265311 -1.46646495
C  1.59411262 -2.07904828 -2.50382735
C  2.61177421 -1.14000715 -2.23865603
C  3.31105023 -1.14987399 -0.92074665
C  2.84075221 -1.68683459 1.48918699
C  1.69375411 -2.42629247 2.09219048
C  1.09819224 -3.29469464 1.03520372
C  -0.29863886 -3.47697287 0.97689541
C  -0.99786145 -3.46710393 -0.34107301
C  -0.26178275 -3.27553138 -1.52818347
C  0.34937664 -1.65164430 -3.20665442
C  0.19078200 -0.30875691 -3.60570730
C  1.26771976 0.68496118 -3.32509371
C  2.44394661 0.28108561 -2.66093400
C  3.03949682 1.14952922 -1.60399577
C  3.57540014 0.26515321 -0.52848723
C  3.46827871 0.65394307 0.82247771
C  3.09053212 -0.34967919 1.85982937
C  0.85965246 -1.78789808 3.03266631
C  1.12401570 -0.37289549 3.42493899
C  2.20787719 0.32586337 2.85508922
C  2.04006331 1.74696963 2.43282432
C  2.81906072 1.94976359 1.17664010
C  2.31267751 2.78546020 0.16031317
C  2.42601113 2.37401750 -1.26933877
C  1.18129864 2.80142740 -1.97217725
C  0.61852741 1.98077823 -2.97095607
C  -0.79763219 -2.39110986 -2.60366672
C  -1.12401937 0.37289782 -3.42492894
C  2.95414082 -2.09825547 0.05953631
60
MD Step 6 Units = [Angstroms]
C  -2.95044636 2.09369804 -0.05786890
C  -2.83705063 1.68223252 -1.48763102
C  -3.08568563 0.35133869 -1.85655045
C  -3.46345047 -0.65236572 -0.81911131
C  -3.57006180 -0.26539414 0.52555004
C  -3.30570183 1.14975068 0.91782505
C  -1.87337275 3.08748321 0.22273375
C  -1.09434692 3.29023757 -1.03361691
C  -1.68993808 2.42175015 -2.09069470
C  -0.85976044 1.78635621 -3.02677811
C  -2.20293434 -0.32426088 -2.85188159
C  -2.81418196 -1.94829752 -1.17329310
C  -2.31014461 -2.78009088 -0.16173442
C  -2.42349559 -2.36860295 1.26804267
C  -3.03411798 -1.14984759 1.60113686
C  -2.43852160 -0.28133686 2.65816994
C  -2.60635454 1.13988688 2.23585734
C  -1.59345424 2.07452847 2.49978416
C  -1.21571834 3.07821105 1.46232574
C  0.29594801 3.47165590 -0.97557940
C  0.99523408 3.46178435 0.34249261
C  0.26259379 3.27110424 1.52405402
C  0.79848880 2.38661527 2.59963169
C  -0.34861077 1.64708912 3.20268507
C  -0.19076816 0.31048237 3.59985925
C  -1.26780073 -0.68331698 3.31922042
C  -0.61855325 -1.97924404 2.96506129
C  -1.17868412 -2.79606677 1.97094867
C  -2.03511011 -1.74549083 -2.42959075
C  1.87337617 -3.08748206 -0.22273569
C  1.21571563 -3.07821826 -1.46233347
C  1.59345575 -2.07452683 -2.49978435
C  2.60635750 -1.13988192 -2.23585815
C  3.30569107 -1.14974704 -0.91783013
C  2.83705608 -1.68223684 1.48763605
C  1.68995794 -2.42175479 2.09069011
C  1.09434984 -3.29023375 1.03361438
C  -0.29594656 -3.47166045 0.97558013
C  -0.99522907 -3.46179008 -0.34250085
C  -0.26259600 -3.27111376 -1.52405494
C  0.34861537 -1.64708902 -3.20266917
C  0.19076427 -0.31048589 -3.59985299
C  1.26779505 0.68332008 -3.31922327
C  2.43851625 0.28133512 -2.65816891
C  3.03411763 1.14985151 -1.60113781
C  3.57006466 0.26539574 -0.52553605
C  3.46344326 0.65237053 0.81910631
C  3.08566830 -0.35133665 1.85654395
C  0.85976403 -1.78635383 3.02676494
C  1.12414361 -0.37122805 3.41907713
C  2.20293700 0.32426429 2.85189162
C  2.03511268 1.74549138 2.42959258
C  2.81416886 1.94829644 1.17329485
C  2.31015897 2.78008753 0.16172621
C  2.42350449 2.36861384 -1.26804980
C  1.17867961 2.79605373 -1.97094520
C  0.61854383 1.97924753 -2.96505193
C  -0.79848911 -2.38661689 -2.59963163
C  -1.12414744 0.37123032 -3.41906571
C  2.95045088 -2.09369152 0.05786385
60
MD Step 7 Units = [Angstroms]
C  -2.94599754 2.08877461 -0.05632856
C  -2.83263821 1.67743076 -1.48566944
C  -3.08012184 0.35271409 -1.85287724
C  -3.45777266 -0.65069414 -0.81574373
C  -3.56388891 -0.26551524 0.52267314
C  -3.29960617 1.14920933 0.91483431
C  -1.86924480 3.08226943 0.22419076
C  -1.09044982 3.28496371 -1.03178986
C  -1.68586009 2.41672761 -2.08855470
C  -0.85954250 1.78429096 -3.02029463
C  -2.19762843 -0.32268777 -2.84791678
C  -2.80869372 -1.94624035 -1.16981810
C  -2.30699749 -2.77417763 -0.16295878
C  -2.42031710 -2.36281462 1.26640172
C  -3.02810464 -1.14971323 1.59794567
C  -2.43268397 -0.28145901 2.65467148
C  -2.60046602 1.13935030 2.23248591
C  -1.59226502 2.06965049 2.49518322
C  -1.21464394 3.07303810 1.45802853
C  0.29339268 3.46554004 -0.97402196
C  0.99247385 3.45567052 0.34366174
C  0.26323528 3.26587503 1.51973597
C  0.79897061 2.38164706 2.59500093
C  -0.34778910 1.64234005 3.19787712
C  -0.19068185 0.31193755 3.59320462
C  -1.26739932 -0.68157245 3.31265355
C  -0.61833849 -1.97711896 2.95859749
C  -1.17586916 -2.79014564 1.96909593
C  -2.02985761 -1.74349978 -2.42575325
C  1.86924877 -3.08226801 -0.22419131
C  1.21463945 -3.07304635 -1.45803703
C  1.59226714 -2.06964898 -2.49518309
C  2.60046895 -1.13934499 -2.23248717
C  3.29959477 -1.14920473 -0.91483943
C  2.83264501 -1.67743528 1.48567432
C  1.68588124 -2.41673299 2.08855029
C  1.09045325 -3.28495963 1.03178662
C  -0.29339045 -3.46554532 0.97402288
C  -0.99246819 -3.45567740 -0.34367003
C  -0.26323689 -3.26588580 -1.51973813
C  0.34779385 -1.64233961 -3.19785958
C  0.19067754 -0.31194116 -3.59319715
C  1.26739273 0.68157565 -3.31265835
C  2.43267808 0.28145772 -2.65467009
C  3.02810461 1.14971720 -1.59794660
C  3.56389167 0.26551720 -0.52265985
C  3.45776409 0.65069936 0.81573975
C  3.08010431 -0.35271173 1.85287016
C  0.85954620 -1.78428805 3.02027997
C  1.12384206 -0.36957547 3.41248256
C  2.19763093 0.32269135 2.84792823
C  2.02986007 1.74350056 2.42575574
C  2.80867963 1.94623909 1.16981959
C  2.30701286 2.77417467 0.16294962
C  2.42032800 2.36282610 -1.26640788
C  1.17586203 2.79013364 -1.96909365
C  0.61832877 1.97712178 -2.95858791
C  -0.79897089 -2.38164920 -2.59500047
C  -1.12384582 0.36957751 -3.41247007
C  2.94600220 -2.08876797 0.05632298
60
MD Step 8 Units = [Angstroms]
C  -2.94077977 2.08366876 -0.05507146
C  -2.82751495 1.67265646 -1.48326274
C  -3.07394243 0.35360664 -1.84890048
C  -3.45128684 -0.64899361 -0.81260068
C  -3.55694891 -0.26545951 0.52008623
C  -3.29287762 1.14812411 0.91193452
C  -1.86489728 3.07636706 0.22522132
C  -1.08672992 3.27889797 -1.02974893
C  -1.68165632 2.41135586 -2.08566150
C  -0.85887966 1.78163256 -3.01341780
C  -2.19215673 -0.32125326 -2.84314158
C  -2.80272799 -1.94349385 -1.16638741
C  -2.30318014 -2.76789428 -0.16383923
C  -2.41641080 -2.35686660 1.26437522
C  -3.02159743 -1.14895119 1.59449692
C  -2.42665633 -0.28139596 2.65037694
C  -2.59430178 1.13827438 2.22853396
C  -1.59041141 2.06459179 2.49010255
C  -1.21309712 3.06717308 1.45378043
C  0.29119305 3.45870180 -0.97222826
C  0.98971333 3.44883941 0.34439509
C  0.26359524 3.25985532 1.51543506
C  0.79889824 2.37633913 2.58983957
C  -0.34693708 1.63762847 3.19223123
C  -0.19050490 0.31291701 3.58586416
C  -1.26635806 -0.67979722 3.30554455
C  -0.61781459 -1.97430267 2.95177160
C  -1.17295977 -2.78384609 1.96649984
C  -2.02452498 -1.74092324 -2.42132072
C  1.86490160 -3.07636535 -0.22522091
C  1.21309135 -3.06718226 -1.45378925
C  1.59041417 -2.06459055 -2.49010196
C  2.59430446 -1.13826885 -2.22853574
C  3.29286595 -1.14811844 -0.91193943
C  2.82752323 -1.67266095 1.48326716
C  1.68167799 -2.41136186 2.08565764
C  1.08673382 -3.27889376 1.02974502
C  -0.29119000 -3.45870772 0.97222934
C  -0.98970711 -3.44884747 -0.34440293
C  -0.26359605 -3.25986724 -1.51543882
C  0.34694174 -1.63762757 -3.19221243
C  0.19050023 -0.31292053 -3.58585548
C  1.26635076 0.67980036 -3.30555105
C  2.42664986 0.28139540 -2.65037526
C  3.02159780 1.14895510 -1.59449775
C  3.55695137 0.26546189 -0.52007462
C  3.45127689 0.64899914 0.81259826
C  3.07392493 -0.35360398 1.84889311
C  0.85888330 -1.78162911 3.01340188
C  1.12296130 -0.36805081 3.40529429
C  2.19215889 0.32125688 2.84315430
C  2.02452713 1.74092426 2.42132400
C  2.80271331 1.94349242 1.16638851
C  2.30319600 2.76789206 0.16382933
C  2.41642365 2.35687830 -1.26438054
C  1.17295039 2.78383556 -1.96649852
C  0.61780491 1.97430443 -2.95176238
C  -0.79889853 -2.37634182 -2.58983861
C  -1.12296478 0.36805244 -3.40528104
C  2.94078436 -2.08366231 0.05506549
60
MD Step 9 Units = [Angstroms]
C  -2.93480498 2.07854520 -0.05422623
C  -2.82170438 1.66811665 -1.48039216
C  -3.06724073 0.35384947 -1.84470511
C  -3.44404750 -0.64732756 -0.80987412
C  -3.54932619 -0.26518174 0.51797565
C  -3.28562785 1.14639442 0.90927145
C  -1.86045309 3.06983829 0.22566792
C  -1.08339038 3.27208167 -1.02752212
C  -1.67746879 2.40576586 -2.08193403
C  -0.85768022 1.77833299 -3.00632988
C  -2.18670362 -0.32005452 -2.83753825
C  -2.79640619 -1.93998799 -1.16315648
C  -2.29867229 -2.76140443 -0.16424671
C  -2.41174481 -2.35096473 1.26194459
C  -3.01473603 -1.14742492 1.59086576
C  -2.42063984 -0.28110071 2.64525237
C  -2.58804570 1.13655939 2.22401097
C  -1.58779263 2.05951552 2.48462597
C  -1.21101592 3.06067562 1.44977227
C  0.28953661 3.45123341 -0.97020999
C  0.98706793 3.44138432 0.34454498
C  0.26358307 3.25308475 1.51133595
C  0.79812606 2.37082238 2.58422115
C  -0.34608220 1.63316150 3.18575876
C  -0.19022043 0.31325208 3.57796096
C  -1.26454888 -0.67805733 3.29804530
C  -0.61692063 -1.97072747 2.94477204
C  -1.17005239 -2.77733017 1.96306951
C  -2.01931378 -1.73771191 -2.41631884
C  1.86045751 -3.06983631 -0.22566708
C  1.21100945 -3.06068559 -1.44978091
C  1.58779603 -2.05951470 -2.48462481
C  2.58804795 -1.13655375 -2.22401333
C  3.28561628 -1.14638758 -0.90927593
C  2.82171425 -1.66812089 1.48039582
C  1.67749025 -2.40577237 2.08193108
C  1.08339472 -3.27207744 1.02751759
C  -0.28953274 -3.45123989 0.97021120
C  -0.98706125 -3.44139357 -0.34455194
C  -0.26358292 -3.25309772 -1.51134155
C  0.34608655 -1.63316005 -3.18573909
C  0.19021545 -0.31325537 -3.57795108
C  1.26454113 0.67806024 -3.29805321
C  2.42063275 0.28110115 -2.64525051
C  3.01473686 1.14742867 -1.59086643
C  3.54932815 0.26518461 -0.51796655
C  3.44403616 0.64733325 0.80987365
C  3.06722347 -0.35384651 1.84469774
C  0.85768362 -1.77832902 3.00631294
C  1.12138273 -0.36675223 3.39765380
C  2.18670528 0.32005804 2.83755207
C  2.01931547 1.73771320 2.41632300
C  2.79639133 1.93998640 1.16315711
C  2.29868817 2.76140328 0.16423632
C  2.41175941 2.35097631 -1.26194930
C  1.17004130 2.77732148 -1.96306887
C  0.61691131 1.97072783 -2.94476379
C  -0.79812642 -2.37082561 -2.58421957
C  -1.12138576 0.36675329 -3.39764011
C  2.93480929 -2.07853920 0.05422005
60
MD Step 10 Units = [Angstroms]
C  -2.92811475 2.07354238 -0.05388325
C  -2.81525490 1.66397460 -1.47706133
C  -3.06011656 0.35333016 -1.84037129
C  -3.43613164 -0.64574755 -0.80770721
C  -3.54111983 -0.26465342 0.51647738
C  -3.27797197 1.14396301 0.90695716
C  -1.85601901 3.06276128 0.22542325
C  -1.08058522 3.26458066 -1.02514055
C  -1.67341560 2.40007624 -2.07733938
C  -0.85588992 1.77437885 -2.99919207
C  -2.18142249 -0.31916295 -2.83112654
C  -2.78984469 -1.93569592 -1.16024696
C  -2.29348584 -2.75485347 -0.16409307
C  -2.40632416 -2.34527916 1.25911118
C  -3.00765201 -1.14505214 1.58712263
C  -2.41480222 -0.28054366 2.63930404
C  -2.58185536 1.13414862 2.21894871
C  -1.58435635 2.05455883 2.47884010
C  -1.20837081 3.05362193 1.44615360
C  0.28855745 3.44323830 -0.96798631
C  0.98462934 3.43340932 0.34401229
C  0.26313853 3.24562781 1.50758461
C  0.79656153 2.36521498 2.57822618
C  -0.34524761 1.62910211 3.17850372
C  -0.18981880 0.31282866 3.56962140
C  -1.26189678 -0.67640649 3.29029908
C  -0.61562111 -1.96636841 2.93776365
C  -1.16722760 -2.77074240 1.95876374
C  -2.01438748 -1.73385110 -2.41079281
C  1.85602326 -3.06275904 -0.22542256
C  1.20836429 -3.05363255 -1.44616153
C  1.58436033 -2.05455858 -2.47883827
C  2.58185701 -1.13414297 -2.21895168
C  3.27796086 -1.14395496 -0.90696102
C  2.81526640 -1.66397843 1.47706397
C  1.67343614 -2.40008311 2.07733764
C  1.08058994 -3.26457654 1.02513551
C  -0.28855284 -3.44324522 0.96798760
C  -0.98462230 -3.43341971 -0.34401803
C  -0.26313735 -3.24564177 -1.50759218
C  0.34525144 -1.62910005 -3.17848355
C  0.18981357 -0.31283156 -3.56961037
C  1.26188890 0.67640902 -3.29030806
C  2.41479444 0.28054532 -2.63930213
C  3.00765335 1.14505568 -1.58712310
C  3.54112111 0.26465685 -0.51647140
C  3.43611897 0.64575327 0.80770889
C  3.06009973 -0.35332693 1.84036426
C  0.85589289 -1.77437442 2.99917438
C  1.11903633 -0.36575233 3.38969826
C  2.18142353 0.31916622 2.83114126
C  2.01438857 1.73385265 2.41079794
C  2.78983002 1.93569419 1.16024706
C  2.29350131 2.75485367 0.16408244
C  2.40634023 2.34529037 -1.25911555
C  1.16721544 2.77073582 -1.95876350
C  0.61561244 1.96636713 -2.93775691
C  -0.79656204 -2.36521873 -2.57822392
C  -1.11903877 0.36575270 -3.38968444
C  2.92811863 -2.07353706 0.05387703
60
MD Step 11 Units = [Angstroms]
C  -2.92078611 2.06876114 -0.05408201
C  -2.80824407 1.66033337 -1.47330173
C  -3.05267426 0.35200813 -1.83597039
C  -3.42764155 -0.64428859 -0.80617722
C  -3.53244361 -0.26386780 0.51565986
C  -3.27002528 1.14082870 0.90505769
C  -1.85167796 3.05523124 0.22444633
C  -1.07840171 3.25648906 -1.02263820
C  -1.66958077 2.39438602 -2.07190570
C  -0.85350301 1.76980030 -2.99213360
C  -2.17642268 -0.31861530 -2.82397216
C  -2.78314943 -1.93064555 -1.15773409
C  -2.28767229 -2.74835896 -0.16334419
C  -2.40019971 -2.33992954 1.25590109
C  -3.00046214 -1.14182111 1.58332958
C  -2.40926359 -0.27971794 2.63258805
C  -2.57584999 1.13104091 2.21340553
C  -1.58011243 2.04982163 2.47283193
C  -1.20517375 3.04610625 1.44301721
C  0.28831842 3.43483014 -0.96558496
C  0.98245644 3.42502816 0.34276190
C  0.26224138 3.23757760 1.50427365
C  0.79418154 2.35961505 2.57194107
C  -0.34445016 1.62555246 3.17054920
C  -0.18929974 0.31160458 3.56097152
C  -1.25839546 -0.67488123 3.28243331
C  -0.61391349 -1.96125467 2.93087592
C  -1.16454329 -2.76420038 1.95360470
C  -2.00985626 -1.72936965 -2.40481057
C  1.85168180 -3.05522879 -0.22444634
C  1.20516783 -3.04611737 -1.44302397
C  1.58011693 -2.04982207 -2.47282936
C  2.57585090 -1.13103533 -2.21340911
C  3.27001495 -1.14081946 -0.90506077
C  2.80825718 -1.66033664 1.47330315
C  1.66959982 -2.39439308 2.07190539
C  1.07840676 -3.25648515 1.02263280
C  -0.28831317 -3.43483737 0.96558631
C  -0.98244911 -3.42503962 -0.34276618
C  -0.26223917 -3.23759252 -1.50428319
C  0.34445327 -1.62554976 -3.17052887
C  0.18929433 -0.31160701 -3.56095942
C  1.25838780 0.67488322 -3.28244303
C  2.40925506 0.27972099 -2.63258625
C  3.00046400 1.14182442 -1.58332987
C  3.53244405 0.26387188 -0.51565733
C  3.42762764 0.64429417 0.80618104
C  3.05265803 -0.35200466 1.83596404
C  0.85350538 -1.76979548 2.99211542
C  1.11591502 -0.36508938 3.38155456
C  2.17642301 0.31861820 2.82398757
C  2.00985664 1.72937143 2.40481673
C  2.78313529 1.93064372 1.15773364
C  2.28768700 2.74836072 0.16333360
C  2.40021686 2.33994020 -1.25590542
C  1.16453079 2.76419605 -1.95360464
C  0.61390573 1.96125166 -2.93087117
C  -0.79418228 -2.35961925 -2.57193809
C  -1.11591680 0.36508896 -3.38154087
C  2.92078944 -2.06875666 0.05407592
60
MD Step 12 Units = [Angstroms]
C  -2.91293482 2.06425737 -0.05480325
C  -2.80078110 1.65722521 -1.46917586
C  -3.04502114 0.34992544 -1.83156230
C  -3.41870620 -0.64296610 -0.80528482
C  -3.52342571 -0.26284312 0.51551313
C  -3.26190091 1.13705419 0.90358531
C  -1.84748397 3.04736091 0.22277259
C  -1.07684937 3.24793116 -1.02005158
C  -1.66600787 2.38876982 -2.06573017
C  -0.85056915 1.76467649 -2.98524462
C  -2.17176112 -0.31840814 -2.81619182
C  -2.77641226 -1.92492651 -1.15563868
C  -2.28132714 -2.74200433 -0.16202822
C  -2.39347346 -2.33497554 1.25236805
C  -2.99326394 -1.13780064 1.57953785
C  -2.40408732 -0.27864268 2.62521613
C  -2.57010268 1.12729842 2.20746885
C  -1.57514143 2.04535929 2.46668708
C  -1.20148365 3.03824135 1.44038935
C  0.28879989 3.42613187 -0.96304296
C  0.98056955 3.41636326 0.34083226
C  0.26091732 3.22905792 1.50143303
C  0.79104247 2.35409584 2.56545714
C  -0.34369919 1.62254331 3.16202104
C  -0.18867369 0.30962052 3.55213432
C  -1.25411702 -0.67349766 3.27455475
C  -0.61183277 -1.95547648 2.92419551
C  -1.16203034 -2.75778854 1.94768630
C  -2.00576734 -1.72434544 -2.39846452
C  1.84748716 -3.04735830 -0.22277375
C  1.20147894 -3.03825281 -1.44039457
C  1.57514632 -2.04536053 -2.46668372
C  2.57010275 -1.12729295 -2.20747299
C  3.26189161 -1.13704384 -0.90358752
C  2.80079570 -1.65722786 1.46917592
C  1.66602495 -2.38877691 2.06573140
C  1.07685470 -3.24792758 1.02004598
C  -0.28879415 -3.42613928 0.96304430
C  -0.98056198 -3.41637566 -0.34083500
C  -0.26091419 -3.22907378 -1.50144435
C  0.34370141 -1.62253999 -3.16200087
C  0.18866815 -0.30962244 -3.55212123
C  1.25410992 0.67349900 -3.27456487
C  2.40407803 0.27864722 -2.62521459
C  2.99326632 1.13780372 -1.57953804
C  3.52342520 0.26284794 -0.51551408
C  3.41869119 0.64297134 0.80529051
C  3.04500565 -0.34992178 1.83155694
C  0.85057076 -1.76467137 2.98522623
C  1.11208359 -0.36476173 3.37333524
C  2.17176071 0.31841056 2.81620768
C  2.00576696 1.72434741 2.39847174
C  2.77639893 1.92492466 1.15563770
C  2.28134084 2.74200777 0.16201795
C  2.39349122 2.33498556 -1.25237263
C  1.16201827 2.75778644 -1.94768626
C  0.61182615 1.95547178 -2.92419309
C  -0.79104354 -2.35410040 -2.56545340
C  -1.11208474 0.36476046 -3.37332192
C  2.91293753 -2.06425381 0.05479741
60
MD Step 13 Units = [Angstroms]
C  -2.90471539 2.06004028 -0.05596750
C  -2.79300668 1.65460942 -1.46477749
C  -3.03726656 0.34720864 -1.82719451
C  -3.40948076 -0.64177518 -0.80495187
C  -3.51420790 -0.26162308 0.51594682
C  -3.25370868 1.13276720 0.90249695
C  -1.84346088 3.03927988 0.22051557