60
MD Step 0 Units = [Angstroms / fs]
C  0.00447817 0.00447889 0.00447693
C  0.00447916 0.00447739 0.00447900
C  0.00447715 0.00447794 0.00447794
C  0.00447803 0.00447793 0.00447607
C  0.00447960 0.00447951 0.00448101
C  0.00447784 0.00447735 0.00447866
C  0.00447869 0.00447889 0.00447775
C  0.00447845 0.00447883 0.00447791
C  0.00448022 0.00447707 0.00447804
C  0.00447918 0.00447807 0.00447581
C  0.00447881 0.00447849 0.00447922
C  0.00447816 0.00447728 0.00447772
C  0.00448002 0.00447742 0.00447712
C  0.00447905 0.00447933 0.00447939
C  0.00447853 0.00447882 0.00447830
C  0.00447763 0.00447766 0.00447795
C  0.00447883 0.00447823 0.00447761
C  0.00447933 0.00447828 0.00447834
C  0.00447718 0.00447714 0.00447748
C  0.00447872 0.00447864 0.00447732
C  0.00447851 0.00447771 0.00447756
C  0.00447805 0.00447723 0.00447942
C  0.00447865 0.00447801 0.00447786
C  0.00447819 0.00447813 0.00447853
C  0.00447741 0.00447741 0.00447869
C  0.00447714 0.00447770 0.00447794
C  0.00447633 0.00447836 0.00447881
C  0.00447657 0.00447721 0.00447772
C  0.00447788 0.00447762 0.00447949
C  0.00447806 0.00447736 0.00447853
C  0.00447801 0.00447783 0.00447772
C  0.00447713 0.00447827 0.00447763
C  0.00447845 0.00447903 0.00447852
C  0.00447635 0.00447924 0.00447618
C  0.00447822 0.00447794 0.00447846
C  0.00448058 0.00447842 0.00447701
C  0.00447848 0.00447814 0.00447816
C  0.00447752 0.00447685 0.00447874
C  0.00447888 0.00447759 0.00447666
C  0.00447745 0.00447715 0.00447701
C  0.00447945 0.00447791 0.00448070
C  0.00447836 0.00447794 0.00447829
C  0.00447877 0.00447915 0.00447634
C  0.00447758 0.00447791 0.00447797
C  0.00447767 0.00447851 0.00447771
C  0.00447768 0.00447687 0.00447882
C  0.00447747 0.00447931 0.00447828
C  0.00447726 0.00447854 0.00447706
C  0.00447820 0.00447837 0.00447771
C  0.00447755 0.00447743 0.00448044
C  0.00447864 0.00447837 0.00447857
C  0.00447938 0.00447852 0.00447674
C  0.00447566 0.00447862 0.00447906
C  0.00447951 0.00447782 0.00447755
C  0.00447825 0.00447926 0.00447598
C  0.00447873 0.00447738 0.00447816
C  0.00447782 0.00447897 0.00447917
C  0.00447770 0.00447807 0.00447801
C  0.00447803 0.00447943 0.00447794
C  0.00447943 0.00447884 0.00447828
60
MD Step 1 Units = [Angstroms / fs]
C  0.00506182 0.00339772 0.00492825
C  0.00508370 0.00331782 0.00465688
C  0.00539430 0.00499264 0.00512003
C  0.00532352 0.00480072 0.00531626
C  0.00545894 0.00431630 0.00362883
C  0.00550789 0.00458380 0.00370164
C  0.00526752 0.00358802 0.00498256
C  0.00541569 0.00362660 0.00474256
C  0.00530483 0.00345819 0.00454065
C  0.00425767 0.00426025 0.00571664
C  0.00556476 0.00486367 0.00493066
C  0.00544788 0.00455350 0.00525094
C  0.00481513 0.00559910 0.00397668
C  0.00479232 0.00567887 0.00425338
C  0.00556016 0.00414542 0.00383217
C  0.00567339 0.00431022 0.00403479
C  0.00564246 0.00458341 0.00395423
C  0.00436900 0.00340678 0.00362199
C  0.00443826 0.00359771 0.00342250
C  0.00366709 0.00339825 0.00466888
C  0.00380063 0.00339542 0.00492111
C  0.00472239 0.00363484 0.00343562
C  0.00482468 0.00346655 0.00364055
C  0.00460548 0.00332546 0.00375644
C  0.00440585 0.00500684 0.00325627
C  0.00419911 0.00481641 0.00320286
C  0.00432350 0.00456900 0.00313586
C  0.00502842 0.00559653 0.00438487
C  0.00559526 0.00459127 0.00501106
C  0.00359835 0.00527722 0.00388324
C  0.00442543 0.00526618 0.00544137
C  0.00449650 0.00545874 0.00524290
C  0.00322375 0.00428276 0.00491083
C  0.00335532 0.00428176 0.00516220
C  0.00378256 0.00554642 0.00420945
C  0.00356480 0.00540620 0.00432332
C  0.00345023 0.00523931 0.00412232
C  0.00519826 0.00546615 0.00419619
C  0.00506574 0.00546883 0.00394207
C  0.00414222 0.00522853 0.00542972
C  0.00426105 0.00553954 0.00511167
C  0.00445888 0.00385749 0.00560971
C  0.00466560 0.00404938 0.00566017
C  0.00319092 0.00455432 0.00483022
C  0.00330506 0.00472073 0.00503271
C  0.00340727 0.00454904 0.00523983
C  0.00354088 0.00406541 0.00354714
C  0.00346935 0.00387281 0.00374384
C  0.00460863 0.00460516 0.00314589
C  0.00465696 0.00487561 0.00322469
C  0.00330150 0.00400215 0.00393611
C  0.00327091 0.00427387 0.00385414
C  0.00341494 0.00431139 0.00361471
C  0.00405331 0.00326511 0.00488690
C  0.00407418 0.00318860 0.00461148
C  0.00383527 0.00326729 0.00447953
C  0.00453978 0.00429723 0.00573114
C  0.00404067 0.00539845 0.00522432
C  0.00420759 0.00399017 0.00564261
C  0.00380469 0.00546890 0.00393588
60
MD Step 2 Units = [Angstroms / fs]
C  0.00626807 0.00297997 0.00594697
C  0.00630616 0.00283891 0.00546179
C  0.00690528 0.00605901 0.00635341
C  0.00677855 0.00571714 0.00670462
C  0.00703749 0.00478406 0.00345476
C  0.00712620 0.00526235 0.00358654
C  0.00663396 0.00331907 0.00604300
C  0.00689811 0.00338785 0.00561529
C  0.00669933 0.00308912 0.00525554
C  0.00468663 0.00463059 0.00751902
C  0.00720767 0.00582876 0.00601496
C  0.00700005 0.00527739 0.00658693
C  0.00578151 0.00728790 0.00413713
C  0.00574161 0.00742828 0.00462832
C  0.00721866 0.00448004 0.00381945
C  0.00742110 0.00477459 0.00418084
C  0.00736507 0.00526095 0.00403770
C  0.00491574 0.00299825 0.00339807
C  0.00504082 0.00333937 0.00304333
C  0.00353531 0.00294892 0.00547422
C  0.00377340 0.00294461 0.00592336
C  0.00554636 0.00340547 0.00306497
C  0.00572801 0.00310501 0.00343152
C  0.00533799 0.00285360 0.00363745
C  0.00495478 0.00608753 0.00267545
C  0.00458662 0.00574790 0.00258109
C  0.00480905 0.00530653 0.00246097
C  0.00616439 0.00728361 0.00486385
C  0.00726263 0.00534417 0.00615784
C  0.00336804 0.00668221 0.00395927
C  0.00495851 0.00666051 0.00695634
C  0.00508586 0.00700325 0.00660284
C  0.00263704 0.00474114 0.00596330
C  0.00287315 0.00473927 0.00641341
C  0.00369610 0.00716135 0.00454037
C  0.00330602 0.00691124 0.00474448
C  0.00310383 0.00661402 0.00438543
C  0.00646621 0.00705144 0.00452692
C  0.00622894 0.00705562 0.00407593
C  0.00445445 0.00659396 0.00693624
C  0.00466443 0.00714745 0.00636653
C  0.00504597 0.00391286 0.00732659
C  0.00541394 0.00425384 0.00741779
C  0.00257935 0.00522603 0.00582029
C  0.00278264 0.00552193 0.00618139
C  0.00296462 0.00521730 0.00654950
C  0.00322177 0.00428490 0.00329504
C  0.00309466 0.00394246 0.00364642
C  0.00531557 0.00537087 0.00247962
C  0.00540200 0.00585358 0.00261797
C  0.00279442 0.00417303 0.00398782
C  0.00273943 0.00465700 0.00384341
C  0.00299890 0.00472354 0.00341458
C  0.00422275 0.00271239 0.00586244
C  0.00426114 0.00257502 0.00537299
C  0.00383482 0.00271656 0.00513620
C  0.00519046 0.00469553 0.00754198
C  0.00427337 0.00689593 0.00656941
C  0.00459862 0.00414810 0.00738521
C  0.00373433 0.00702252 0.00405316
60
MD Step 3 Units = [Angstroms / fs]
C  0.00728839 0.00244463 0.00667374
C  0.00733383 0.00227474 0.00608693
C  0.00817738 0.00680387 0.00734154
C  0.00802427 0.00639091 0.00776647
C  0.00838782 0.00507765 0.00319258
C  0.00849561 0.00565588 0.00335274
C  0.00772994 0.00285454 0.00678942
C  0.00804902 0.00293761 0.00627263
C  0.00780887 0.00257681 0.00583809
C  0.00497825 0.00474474 0.00902278
C  0.00854241 0.00652542 0.00693210
C  0.00829198 0.00586020 0.00762402
C  0.00657709 0.00868808 0.00417840
C  0.00652901 0.00885671 0.00477154
C  0.00860689 0.00471008 0.00363436
C  0.00885174 0.00506625 0.00407147
C  0.00878382 0.00565408 0.00389889
C  0.00533835 0.00247131 0.00299874
C  0.00548981 0.00288386 0.00257026
C  0.00331873 0.00232030 0.00607450
C  0.00360653 0.00231528 0.00661708
C  0.00610056 0.00296375 0.00259550
C  0.00631962 0.00260054 0.00303927
C  0.00584877 0.00229686 0.00328790
C  0.00530999 0.00684598 0.00193461
C  0.00486506 0.00643524 0.00182131
C  0.00513450 0.00590165 0.00167580
C  0.00704083 0.00868324 0.00505620
C  0.00860872 0.00594019 0.00710434
C  0.00299450 0.00786913 0.00393553
C  0.00523164 0.00783838 0.00815167
C  0.00538569 0.00825248 0.00772457
C  0.00194051 0.00507025 0.00682437
C  0.00222630 0.00506818 0.00736973
C  0.00339080 0.00844794 0.00463735
C  0.00291841 0.00814586 0.00488441
C  0.00267527 0.00778653 0.00445029
C  0.00740531 0.00840239 0.00464902
C  0.00711812 0.00840725 0.00410479
C  0.00462282 0.00775811 0.00812782
C  0.00487583 0.00842660 0.00743822
C  0.00541313 0.00387686 0.00878982
C  0.00585771 0.00428879 0.00889982
C  0.00187118 0.00565686 0.00665211
C  0.00211683 0.00601405 0.00708882
C  0.00233649 0.00564608 0.00753339
C  0.00269832 0.00433338 0.00295593
C  0.00254519 0.00391995 0.00338067
C  0.00574617 0.00597913 0.00169835
C  0.00585021 0.00656298 0.00186528
C  0.00218184 0.00419866 0.00379300
C  0.00211554 0.00478338 0.00361932
C  0.00242952 0.00486311 0.00309967
C  0.00414923 0.00203474 0.00654355
C  0.00419631 0.00186867 0.00595247
C  0.00368034 0.00203966 0.00566594
C  0.00558765 0.00482251 0.00904931
C  0.00440413 0.00812267 0.00768410
C  0.00487288 0.00416092 0.00886008
C  0.00343620 0.00828000 0.00404876
60
MD Step 4 Units = [Angstroms / fs]
C  0.00738770 0.00108320 0.00633220
C  0.00742820 0.00092936 0.00579961
C  0.00845492 0.00643940 0.00732623
C  0.00831650 0.00606485 0.00771195
C  0.00875843 0.00446658 0.00214537
C  0.00885653 0.00499069 0.00229129
C  0.00778749 0.00145557 0.00643691
C  0.00807669 0.00153086 0.00596803
C  0.00785983 0.00120277 0.00557405
C  0.00441633 0.00384023 0.00944895
C  0.00878634 0.00618644 0.00695432
C  0.00855969 0.00558428 0.00758316
C  0.00647268 0.00902457 0.00339132
C  0.00642879 0.00917658 0.00393019
C  0.00895697 0.00413211 0.00254705
C  0.00917920 0.00445524 0.00294452
C  0.00911773 0.00498939 0.00278853
C  0.00492582 0.00111711 0.00169299
C  0.00506269 0.00149167 0.00130396
C  0.00232161 0.00077986 0.00572720
C  0.00258292 0.00077522 0.00621944
C  0.00561728 0.00156428 0.00132607
C  0.00581548 0.00123476 0.00172973
C  0.00538881 0.00095947 0.00195531
C  0.00473337 0.00649406 0.00030872
C  0.00432924 0.00612065 0.00020705
C  0.00457477 0.00563621 0.00007469
C  0.00689401 0.00902087 0.00418762
C  0.00884577 0.00565549 0.00710992
C  0.00175921 0.00809038 0.00311044
C  0.00448094 0.00805284 0.00824023
C  0.00462056 0.00842883 0.00785264
C  0.00042867 0.00455705 0.00675687
C  0.00068789 0.00455571 0.00725363
C  0.00211876 0.00861569 0.00374664
C  0.00168913 0.00834213 0.00397091
C  0.00146983 0.00801542 0.00357702
C  0.00722483 0.00876506 0.00381859
C  0.00696391 0.00876950 0.00332499
C  0.00392860 0.00797991 0.00821919
C  0.00415784 0.00858632 0.00759278
C  0.00481204 0.00305115 0.00923800
C  0.00521569 0.00342552 0.00933631
C  0.00036607 0.00509031 0.00660139
C  0.00058907 0.00541408 0.00699838
C  0.00078794 0.00507942 0.00740202
C  0.00122824 0.00348157 0.00183319
C  0.00109017 0.00310667 0.00221830
C  0.00513017 0.00570594 0.00009460
C  0.00522331 0.00623652 0.00024706
C  0.00075995 0.00335979 0.00259296
C  0.00070055 0.00389036 0.00243606
C  0.00098433 0.00396128 0.00196259
C  0.00307548 0.00052073 0.00615294
C  0.00311896 0.00037072 0.00561628
C  0.00264917 0.00052472 0.00535661
C  0.00496996 0.00390986 0.00947234
C  0.00373052 0.00831061 0.00781597
C  0.00432219 0.00330945 0.00930031
C  0.00215894 0.00846342 0.00321258
60
MD Step 5 Units = [Angstroms / fs]
C  0.00877425 0.00112884 0.00710305
C  0.00879509 0.00104477 0.00681139
C  0.00993076 0.00713823 0.00849980
C  0.00985626 0.00693323 0.00871094
C  0.01034477 0.00516531 0.00255325
C  0.01039871 0.00545070 0.00263381
C  0.00899166 0.00133387 0.00716012
C  0.00914937 0.00137493 0.00690325
C  0.00903328 0.00119309 0.00668801
C  0.00522531 0.00410995 0.01097325
C  0.01011328 0.00699906 0.00829540
C  0.00999017 0.00667184 0.00864191
C  0.00768160 0.01047623 0.00400622
C  0.00765668 0.01055788 0.00430376
C  0.01045279 0.00497966 0.00277438
C  0.01057449 0.00515634 0.00299402
C  0.01054144 0.00545099 0.00290974
C  0.00590561 0.00116856 0.00169773
C  0.00597880 0.00137403 0.00148372
C  0.00278467 0.00054440 0.00663709
C  0.00292822 0.00054144 0.00690679
C  0.00628394 0.00141412 0.00149466
C  0.00639151 0.00123380 0.00171766
C  0.00615873 0.00108353 0.00184144
C  0.00543376 0.00720414 0.00002025
C  0.00521127 0.00699799 -0.00003319
C  0.00534793 0.00673201 -0.00010618
C  0.00791279 0.01047566 0.00444244
C  0.01014401 0.00670795 0.00837929
C  0.00188770 0.00954481 0.00371990
C  0.00489762 0.00950323 0.00939333
C  0.00497355 0.00970996 0.00918070
C  0.00033746 0.00542801 0.00796826
C  0.00047872 0.00542851 0.00824406
C  0.00208469 0.00983315 0.00406725
C  0.00184773 0.00968452 0.00418994
C  0.00172982 0.00950394 0.00397440
C  0.00809461 0.01033324 0.00424141
C  0.00795122 0.01033592 0.00397075
C  0.00459491 0.00946289 0.00938294
C  0.00472040 0.00979507 0.00903903
C  0.00544438 0.00367394 0.01085921
C  0.00566634 0.00388076 0.01090930
C  0.00030355 0.00572215 0.00788464
C  0.00042604 0.00589905 0.00810381
C  0.00053409 0.00571343 0.00832588
C  0.00102110 0.00394578 0.00216748
C  0.00094729 0.00374053 0.00237759
C  0.00565372 0.00676897 -0.00009680
C  0.00570181 0.00706134 -0.00001033
C  0.00076550 0.00387976 0.00258450
C  0.00073482 0.00417065 0.00249950
C  0.00088689 0.00420642 0.00223636
C  0.00319880 0.00040207 0.00687086
C  0.00322390 0.00032174 0.00657553
C  0.00296301 0.00040310 0.00643448
C  0.00552986 0.00414637 0.01098549
C  0.00448719 0.00964419 0.00916085
C  0.00517657 0.00381714 0.01089014
C  0.00210486 0.00975018 0.00377452
60
MD Step 6 Units = [Angstroms / fs]
C  0.01118658 0.00234216 0.00871484
C  0.01117189 0.00238565 0.00886506
C  0.01233490 0.00862529 0.01059400
C  0.01237727 0.00873096 0.01048485
C  0.01287740 0.00692029 0.00417795
C  0.01285006 0.00676828 0.00413807
C  0.01107028 0.00224017 0.00868487
C  0.01098713 0.00221853 0.00881659
C  0.01105519 0.00230514 0.00892876
C  0.00715601 0.00529220 0.01331646
C  0.01224444 0.00869491 0.01069701
C  0.01231070 0.00887066 0.01052521
C  0.00994619 0.01276597 0.00577832
C  0.00995616 0.01271950 0.00563324
C  0.01281956 0.00700800 0.00406728
C  0.01275692 0.00691618 0.00396038
C  0.01277590 0.00677136 0.00400712
C  0.00802898 0.00238609 0.00276548
C  0.00798561 0.00228139 0.00287238
C  0.00446954 0.00136804 0.00854418
C  0.00439712 0.00136817 0.00840602
C  0.00783329 0.00226177 0.00286355
C  0.00777517 0.00235499 0.00275458
C  0.00789737 0.00243372 0.00269180
C  0.00715475 0.00870091 0.00082662
C  0.00726546 0.00880184 0.00086079
C  0.00720179 0.00893658 0.00089690
C  0.00982825 0.01277068 0.00555464
C  0.01222297 0.00884331 0.01064994
C  0.00313606 0.01196562 0.00552204
C  0.00621816 0.01192304 0.01133204
C  0.00617733 0.01181938 0.01144015
C  0.00142988 0.00743458 0.01019785
C  0.00135481 0.00743815 0.01006713
C  0.00303511 0.01181956 0.00534034
C  0.00315220 0.01189961 0.00527661
C  0.00321912 0.01198731 0.00538810
C  0.00973693 0.01283673 0.00566139
C  0.00980931 0.01283622 0.00579907
C  0.00637290 0.01194244 0.01134075
C  0.00630861 0.01177208 0.01151540
C  0.00705052 0.00550443 0.01337995
C  0.00693930 0.00540386 0.01334255
C  0.00144824 0.00728966 0.01024537
C  0.00138643 0.00719764 0.01013807
C  0.00132833 0.00728557 0.01002724
C  0.00182710 0.00547503 0.00372125
C  0.00187050 0.00558056 0.00361067
C  0.00704992 0.00891384 0.00088730
C  0.00701622 0.00876893 0.00085230
C  0.00196121 0.00551086 0.00350985
C  0.00198273 0.00536241 0.00355604
C  0.00189382 0.00533469 0.00367997
C  0.00426080 0.00143976 0.00842601
C  0.00425157 0.00148682 0.00857314
C  0.00437474 0.00143564 0.00864946
C  0.00700344 0.00526848 0.01330899
C  0.00643060 0.01185003 0.01145114
C  0.00718946 0.00543645 0.01335430
C  0.00301939 0.01186364 0.00548993
60
MD Step 7 Units = [Angstroms / fs]
C  0.01142976 0.00154619 0.00798358
C  0.01136414 0.00177337 0.00877096
C  0.01247215 0.00771819 0.01041813
C  0.01268289 0.00827165 0.00984703
C  0.01315935 0.00654629 0.00383675
C  0.01301465 0.00576374 0.00362286
C  0.01083271 0.00100141 0.00782826
C  0.01040240 0.00088940 0.00852019
C  0.01073562 0.00136322 0.00910425
C  0.00702087 0.00420947 0.01328385
C  0.01198815 0.00808895 0.01096451
C  0.01232718 0.00898922 0.01004507
C  0.01007378 0.01269993 0.00552246
C  0.01013409 0.01246922 0.00473919
C  0.01286244 0.00702836 0.00324722
C  0.01253398 0.00654942 0.00266926
C  0.01262796 0.00577079 0.00290465
C  0.00810564 0.00159266 0.00172100
C  0.00789430 0.00104064 0.00229056
C  0.00419259 0.00007904 0.00826077
C  0.00380874 0.00008363 0.00753464
C  0.00708240 0.00093491 0.00225365
C  0.00678565 0.00142251 0.00166561
C  0.00741936 0.00183127 0.00133392
C  0.00671143 0.00780183 -0.00044352
C  0.00730261 0.00834575 -0.00028351
C  0.00694972 0.00905832 -0.00008994
C  0.00945218 0.01271200 0.00434752
C  0.01189167 0.00887088 0.01072893
C  0.00232660 0.01215754 0.00533143
C  0.00526302 0.01211703 0.01086740
C  0.00505384 0.01156580 0.01143790
C  0.00053075 0.00738816 0.01025337
C  0.00014374 0.00739595 0.00953574
C  0.00179614 0.01138521 0.00438725
C  0.00242415 0.01179475 0.00405462
C  0.00275695 0.01226946 0.00463763
C  0.00896708 0.01307893 0.00489792
C  0.00935073 0.01307386 0.00562408
C  0.00607715 0.01222255 0.01090344
C  0.00573952 0.01132778 0.01182605
C  0.00644703 0.00535682 0.01360325
C  0.00585544 0.00481293 0.01344019
C  0.00062431 0.00660983 0.01048958
C  0.00029677 0.00613029 0.00991135
C  -0.00000070 0.00661277 0.00932057
C  0.00047458 0.00488737 0.00331277
C  0.00068662 0.00544078 0.00273994
C  0.00613801 0.00894973 -0.00012672
C  0.00598684 0.00817406 -0.00033713
C  0.00117045 0.00506982 0.00219535
C  0.00126698 0.00428802 0.00243031
C  0.00083088 0.00416927 0.00311312
C  0.00308583 0.00045930 0.00763521
C  0.00302675 0.00068984 0.00842023
C  0.00370423 0.00044792 0.00880991
C  0.00620900 0.00409947 0.01324838
C  0.00637321 0.01173561 0.01149336
C  0.00717219 0.00498428 0.01349656
C  0.00172913 0.01161243 0.00517447
60
MD Step 8 Units = [Angstroms / fs]
C  0.01278361 0.00203337 0.00822296
C  0.01265386 0.00249236 0.00981510
C  0.01363141 0.00773809 0.01126834
C  0.01405468 0.00885697 0.01011369
C  0.01447514 0.00733434 0.00480893
C  0.01418208 0.00575550 0.00437497
C  0.01157965 0.00092927 0.00790945
C  0.01071096 0.00070315 0.00930885
C  0.01137885 0.00166611 0.01048877
C  0.00810123 0.00417805 0.01417556
C  0.01265038 0.00848922 0.01237479
C  0.01333375 0.01030411 0.01051086
C  0.01134463 0.01357762 0.00652013
C  0.01146854 0.01311461 0.00493087
C  0.01387632 0.00831462 0.00361422
C  0.01321214 0.00734677 0.00244118
C  0.01340079 0.00576754 0.00291465
C  0.00941086 0.00208076 0.00186932
C  0.00898743 0.00096373 0.00302320
C  0.00523129 -0.00001201 0.00908004
C  0.00445409 -0.00000176 0.00761137
C  0.00734250 0.00074920 0.00295111
C  0.00674456 0.00173489 0.00175773
C  0.00802405 0.00256038 0.00108647
C  0.00739881 0.00782799 -0.00048246
C  0.00859683 0.00893153 -0.00016381
C  0.00787844 0.01037394 0.00022874
C  0.01008673 0.01359883 0.00414391
C  0.01245933 0.01007118 0.01190133
C  0.00275536 0.01340560 0.00642569
C  0.00534635 0.01336999 0.01131118
C  0.00492456 0.01225348 0.01246564
C  0.00093366 0.00856722 0.01141924
C  0.00015262 0.00858021 0.00995979
C  0.00168246 0.01184236 0.00451873
C  0.00295608 0.01266790 0.00384640
C  0.00362428 0.01363151 0.00502495
C  0.00910431 0.01434599 0.00525455
C  0.00988120 0.01433516 0.00672374
C  0.00699317 0.01358428 0.01138162
C  0.00631053 0.01177471 0.01324905
C  0.00693564 0.00650676 0.01481811
C  0.00573737 0.00540292 0.01449669
C  0.00112204 0.00698868 0.01189350
C  0.00045889 0.00601986 0.01072036
C  -0.00014076 0.00700070 0.00952342
C  0.00027871 0.00547785 0.00422251
C  0.00070351 0.00659680 0.00306596
C  0.00623339 0.01015707 0.00015774
C  0.00593414 0.00858456 -0.00027439
C  0.00168398 0.00584533 0.00196085
C  0.00187507 0.00426367 0.00243395
C  0.00100065 0.00403031 0.00382315
C  0.00299041 0.00075788 0.00781369
C  0.00286810 0.00122003 0.00940430
C  0.00424607 0.00073743 0.01018971
C  0.00645654 0.00395942 0.01410504
C  0.00759018 0.01259914 0.01257728
C  0.00840101 0.00574953 0.01460943
C  0.00155100 0.01230090 0.00611119
60
MD Step 9 Units = [Angstroms / fs]
C  0.01372584 0.00228793 0.00796756
C  0.01352272 0.00301247 0.01048207
C  0.01430894 0.00723294 0.01165089
C  0.01497571 0.00899977 0.00982730
C  0.01531407 0.00777462 0.00555814
C  0.01485091 0.00528319 0.00487173
C  0.01182650 0.00054274 0.00747286
C  0.01045540 0.00018586 0.00968304
C  0.01150672 0.00170949 0.01154577
C  0.00887011 0.00373096 0.01451007
C  0.01275826 0.00842007 0.01339931
C  0.01383618 0.01128288 0.01045275
C  0.01223492 0.01391543 0.00724207
C  0.01243172 0.01318644 0.00472908
C  0.01436927 0.00932598 0.00366949
C  0.01332032 0.00779779 0.00181435
C  0.01361741 0.00530092 0.00256053
C  0.01040820 0.00233482 0.00171838
C  0.00974173 0.00057017 0.00354192
C  0.00604667 -0.00038966 0.00949905
C  0.00481861 -0.00037290 0.00717938
C  0.00714205 0.00023093 0.00342975
C  0.00619908 0.00178750 0.00154235
C  0.00821852 0.00309050 0.00048196
C  0.00771472 0.00732736 -0.00078099
C  0.00960826 0.00907238 -0.00028077
C  0.00847078 0.01135132 0.00033994
C  0.01024761 0.01394697 0.00348914
C  0.01245894 0.01091884 0.01265339
C  0.00291459 0.01419845 0.00726806
C  0.00499901 0.01417002 0.01119931
C  0.00433353 0.01240561 0.01302303
C  0.00112319 0.00944006 0.01217966
C  -0.00010950 0.00945892 0.00986958
C  0.00122001 0.01172879 0.00425782
C  0.00323383 0.01303100 0.00319608
C  0.00428613 0.01455502 0.00505717
C  0.00869523 0.01513009 0.00524184
C  0.00992292 0.01511266 0.00756245
C  0.00760007 0.01450897 0.01130912
C  0.00652218 0.01165101 0.01425951
C  0.00702612 0.00741388 0.01552295
C  0.00513257 0.00566823 0.01502030
C  0.00142014 0.00694424 0.01292655
C  0.00037233 0.00541477 0.01107148
C  -0.00057355 0.00696683 0.00917982
C  -0.00023595 0.00574125 0.00491554
C  0.00043251 0.00750826 0.00309007
C  0.00587067 0.01101045 0.00022982
C  0.00540191 0.00852454 -0.00045659
C  0.00198230 0.00632067 0.00134248
C  0.00228164 0.00382235 0.00208832
C  0.00090495 0.00345789 0.00428753
C  0.00250599 0.00082672 0.00749834
C  0.00231102 0.00155424 0.01001218
C  0.00449210 0.00079594 0.01125109
C  0.00627084 0.00338809 0.01439959
C  0.00854193 0.01295289 0.01319908
C  0.00933973 0.00621575 0.01519767
C  0.00101492 0.01245243 0.00677309
60
MD Step 10 Units = [Angstroms / fs]
C  0.01443362 0.00248765 0.00747192
C  0.01415342 0.00349134 0.01095646
C  0.01470903 0.00647592 0.01178237
C  0.01563180 0.00892410 0.00925517
C  0.01587121 0.00805764 0.00623506
C  0.01522909 0.00460648 0.00528295
C  0.01180311 0.00006822 0.00678677
C  0.00990365 -0.00042618 0.00984957
C  0.01135810 0.00168714 0.01243025
C  0.00949420 0.00311723 0.01452378
C  0.01255921 0.00812160 0.01420601
C  0.01405202 0.01208622 0.01012076
C  0.01291848 0.01394622 0.00785047
C  0.01319192 0.01293777 0.00436603
C  0.01456257 0.01020963 0.00361627
C  0.01310897 0.00809217 0.00104376
C  0.01352005 0.00463018 0.00207660
C  0.01125196 0.00253291 0.00147958
C  0.01032991 0.00008715 0.00400736
C  0.00678600 -0.00083337 0.00971954
C  0.00508377 -0.00080974 0.00650493
C  0.00672616 -0.00038328 0.00385323
C  0.00542046 0.00177370 0.00123576
C  0.00821792 0.00357877 -0.00023381
C  0.00786061 0.00657319 -0.00112782
C  0.01048560 0.00899294 -0.00043683
C  0.00890728 0.01215166 0.00042393
C  0.01016399 0.01398852 0.00264974
C  0.01214614 0.01158448 0.01317372
C  0.00299407 0.01472929 0.00800995
C  0.00446783 0.01470955 0.01079072
C  0.00354607 0.01226373 0.01331827
C  0.00127675 0.01016707 0.01271993
C  -0.00043100 0.01019200 0.00951489
C  0.00064568 0.01130642 0.00383955
C  0.00343816 0.01310987 0.00236821
C  0.00489418 0.01522330 0.00494712
C  0.00801216 0.01563027 0.00507767
C  0.00971403 0.01560591 0.00829355
C  0.00807235 0.01517959 0.01094193
C  0.00657893 0.01121913 0.01503128
C  0.00693664 0.00822451 0.01592607
C  0.00431192 0.00580388 0.01523305
C  0.00168778 0.00670642 0.01375334
C  0.00023542 0.00458742 0.01118105
C  -0.00107450 0.00674024 0.00855878
C  -0.00083562 0.00587312 0.00554412
C  0.00008896 0.00832162 0.00301527
C  0.00530276 0.01168048 0.00027273
C  0.00465589 0.00823382 -0.00068125
C  0.00223760 0.00667537 0.00059192
C  0.00265067 0.00321305 0.00162442
C  0.00074581 0.00271094 0.00467584
C  0.00187841 0.00085252 0.00694656
C  0.00160683 0.00185905 0.01043130
C  0.00463278 0.00081094 0.01214711
C  0.00589097 0.00264393 0.01437144
C  0.00937682 0.01302309 0.01356209
C  0.01014220 0.00656272 0.01547839
C  0.00036336 0.01230886 0.00732526
60
MD Step 11 Units = [Angstroms / fs]
C  0.01485946 0.00258089 0.00678080
C  0.01450519 0.00385301 0.01119851
C  0.01481767 0.00553426 0.01166274
C  0.01598664 0.00863787 0.00845857
C  0.01612170 0.00814970 0.00675624
C  0.01530740 0.00377531 0.00554834
C  0.01152571 -0.00048720 0.00591253
C  0.00911795 -0.00111388 0.00979550
C  0.01096014 0.00156674 0.01306672
C  0.00991110 0.00237304 0.01424209
C  0.01209139 0.00762110 0.01473602
C  0.01398334 0.01264544 0.00955524
C  0.01334309 0.01369085 0.00827674
C  0.01369026 0.01241376 0.00385777
C  0.01446305 0.01087956 0.00343471
C  0.01262022 0.00819520 0.00017208
C  0.01314087 0.00380472 0.00148055
C  0.01186521 0.00262379 0.00114218
C  0.01069737 -0.00047725 0.00434743
C  0.00736194 -0.00134357 0.00972231
C  0.00520351 -0.00131328 0.00564680
C  0.00612770 -0.00107392 0.00415311
C  0.00447316 0.00166072 0.00083312
C  0.00801893 0.00394865 -0.00103002
C  0.00781620 0.00563292 -0.00153489
C  0.01114481 0.00870181 -0.00066054
C  0.00914232 0.01270694 0.00043125
C  0.00985053 0.01374339 0.00168324
C  0.01156901 0.01201141 0.01342837
C  0.00295712 0.01497055 0.00856958
C  0.00378690 0.01496000 0.01013696
C  0.00261860 0.01185864 0.01334162
C  0.00134170 0.01067836 0.01300190
C  -0.00082313 0.01070902 0.00893552
C  -0.00002028 0.01063075 0.00328322
C  0.00352148 0.01291632 0.00141780
C  0.00536571 0.01559679 0.00468724
C  0.00712199 0.01582650 0.00476075
C  0.00928012 0.01579545 0.00883774
C  0.00835664 0.01555614 0.01032804
C  0.00646363 0.01053515 0.01551305
C  0.00666700 0.00885075 0.01601895
C  0.00333894 0.00578077 0.01514301
C  0.00186239 0.00628942 0.01431076
C  0.00002084 0.00360338 0.01104846
C  -0.00163923 0.00633417 0.00772332
C  -0.00150445 0.00584507 0.00602647
C  -0.00033363 0.00894913 0.00282113
C  0.00457158 0.01211048 0.00024060
C  0.00375350 0.00773943 -0.00097095
C  0.00239124 0.00686165 -0.00025242
C  0.00291362 0.00247198 0.00105571
C  0.00050069 0.00183767 0.00492725
C  0.00113938 0.00079394 0.00620647
C  0.00079395 0.00206881 0.01062516
C  0.00463288 0.00074203 0.01279969
C  0.00534208 0.00177452 0.01404961
C  0.01000992 0.01282204 0.01365065
C  0.01073051 0.00674292 0.01545372
C  -0.00037669 0.01190140 0.00770242
60
MD Step 12 Units = [Angstroms / fs]
C  0.01510057 0.00265772 0.00608995
C  0.01468245 0.00416141 0.01131303
C  0.01476839 0.00462790 0.01144002
C  0.01614975 0.00829715 0.00765155
C  0.01618756 0.00816156 0.00717804
C  0.01522464 0.00299043 0.00574921
C  0.01116001 -0.00097018 0.00506374
C  0.00831354 -0.00171103 0.00965451
C  0.01049030 0.00145923 0.01352150
C  0.01020078 0.00168393 0.01384124
C  0.01154447 0.00709552 0.01507409
C  0.01378095 0.01303422 0.00894771
C  0.01360050 0.01332050 0.00859376
C  0.01401129 0.01181178 0.00336820
C  0.01422682 0.01139021 0.00324963
C  0.01204809 0.00821657 -0.00060859
C  0.01266321 0.00302471 0.00093760
C  0.01231256 0.00269797 0.00084046
C  0.01093268 -0.00096863 0.00463038
C  0.00782677 -0.00177532 0.00963422
C  0.00527455 -0.00173922 0.00481573
C  0.00552935 -0.00167431 0.00440154
C  0.00357387 0.00155899 0.00047506
C  0.00776530 0.00426346 -0.00172768
C  0.00770673 0.00472666 -0.00186980
C  0.01164257 0.00835587 -0.00083738
C  0.00927393 0.01309156 0.00045393
C  0.00947092 0.01338176 0.00079822
C  0.01092786 0.01228620 0.01352897
C  0.00291019 0.01504104 0.00900555
C  0.00313972 0.01503910 0.00944185
C  0.00175869 0.01137193 0.01323093
C  0.00140683 0.01104591 0.01313247
C  -0.00115259 0.01108135 0.00832229
C  -0.00061013 0.00990995 0.00275618
C  0.00357849 0.01261157 0.00055064
C  0.00575763 0.01578141 0.00441599
C  0.00624457 0.01584595 0.00443637
C  0.00879659 0.01580910 0.00925639
C  0.00854241 0.01574408 0.00966743
C  0.00630467 0.00980786 0.01579799
C  0.00636410 0.00934459 0.01594131
C  0.00242907 0.00571417 0.01490773
C  0.00202209 0.00585566 0.01467886
C  -0.00015539 0.00268032 0.01082101
C  -0.00211762 0.00590997 0.00688921
C  -0.00207984 0.00577316 0.00642070
C  -0.00069665 0.00944300 0.00263172
C  0.00386932 0.01238705 0.00022930
C  0.00290358 0.00721804 -0.00120473
C  0.00252571 0.00697471 -0.00100316
C  0.00314229 0.00178469 0.00054269
C  0.00029089 0.00103654 0.00512239
C  0.00046933 0.00075193 0.00547730
C  0.00005998 0.00225832 0.01070200
C  0.00460083 0.00069113 0.01327236
C  0.00479825 0.00097760 0.01361422
C  0.01049669 0.01251145 0.01359629
C  0.01116794 0.00685183 0.01527485
C  -0.00103028 0.01141210 0.00798095
60
MD Step 13 Units = [Angstroms / fs]
C  0.01563826 0.00319171 0.00597494
C  0.01517341 0.00486507 0.01178838
C  0.01507750 0.00435555 0.01164424
C  0.01661443 0.00843947 0.00742739
C  0.01657409 0.00858708 0.00794187
C  0.01550224 0.00283195 0.00635089
C  0.01125302 -0.00084657 0.00483305
C  0.00808489 -0.00167111 0.00994262
C  0.01050683 0.00185812 0.01424611
C  0.01082761 0.00161527 0.01387858
C  0.01148852 0.00710237 0.01568957
C  0.01397771 0.01371110 0.00886987
C  0.01416668 0.01338759 0.00925896
C  0.01462409 0.01170932 0.00344202
C  0.01439188 0.01218151 0.00356809
C  0.01196694 0.00864914 -0.00072673
C  0.01265119 0.00286972 0.00099356
C  0.01304371 0.00322947 0.00109038
C  0.01150854 -0.00085178 0.00530892
C  0.00861804 -0.00160255 0.00996476
C  0.00577705 -0.00156211 0.00460162
C  0.00549405 -0.00163744 0.00505496
C  0.00331808 0.00196156 0.00068364
C  0.00798265 0.00497113 -0.00176797
C  0.00803999 0.00445334 -0.00161858
C  0.01242096 0.00849341 -0.00047048
C  0.00978381 0.01376474 0.00096725
C  0.00957009 0.01345511 0.00058218
C  0.01080301 0.01287976 0.01397059
C  0.00334261 0.01544291 0.00976158
C  0.00308985 0.01544795 0.00928897
C  0.00155293 0.01136594 0.01350654
C  0.00194435 0.01172644 0.01360216
C  -0.00090448 0.01176520 0.00824617
C  -0.00057582 0.00973182 0.00280637
C  0.00408727 0.01273839 0.00035149