 Entering Gaussian System, Link 0=g16
 Initial command:
 /software/gaussian/g16-c01/avx2/g16/l1.exe "/gpfs/fs2/scratch/bweight/software/SQD/examples/Fullerene_Dye/TD_DFT/NTOs/Gau-2125.inp" -scrdir="/gpfs/fs2/scratch/bweight/software/SQD/examples/Fullerene_Dye/TD_DFT/NTOs/"
 Entering Link 1 = /software/gaussian/g16-c01/avx2/g16/l1.exe PID=      2126.
  
 Copyright (c) 1988-2019, Gaussian, Inc.  All Rights Reserved.
  
 This is part of the Gaussian(R) 16 program.  It is based on
 the Gaussian(R) 09 system (copyright 2009, Gaussian, Inc.),
 the Gaussian(R) 03 system (copyright 2003, Gaussian, Inc.),
 the Gaussian(R) 98 system (copyright 1998, Gaussian, Inc.),
 the Gaussian(R) 94 system (copyright 1995, Gaussian, Inc.),
 the Gaussian 92(TM) system (copyright 1992, Gaussian, Inc.),
 the Gaussian 90(TM) system (copyright 1990, Gaussian, Inc.),
 the Gaussian 88(TM) system (copyright 1988, Gaussian, Inc.),
 the Gaussian 86(TM) system (copyright 1986, Carnegie Mellon
 University), and the Gaussian 82(TM) system (copyright 1983,
 Carnegie Mellon University). Gaussian is a federally registered
 trademark of Gaussian, Inc.
  
 This software contains proprietary and confidential information,
 including trade secrets, belonging to Gaussian, Inc.
  
 This software is provided under written license and may be
 used, copied, transmitted, or stored only in accord with that
 written license.
  
 The following legend is applicable only to US Government
 contracts under FAR:
  
                    RESTRICTED RIGHTS LEGEND
  
 Use, reproduction and disclosure by the US Government is
 subject to restrictions as set forth in subparagraphs (a)
 and (c) of the Commercial Computer Software - Restricted
 Rights clause in FAR 52.227-19.
  
 Gaussian, Inc.
 340 Quinnipiac St., Bldg. 40, Wallingford CT 06492
  
  
 ---------------------------------------------------------------
 Warning -- This program may not be used in any manner that
 competes with the business of Gaussian, Inc. or will provide
 assistance to any competitor of Gaussian, Inc.  The licensee
 of this program is prohibited from giving any competitor of
 Gaussian, Inc. access to this program.  By using this program,
 the user acknowledges that Gaussian, Inc. is engaged in the
 business of creating and licensing software in the field of
 computational chemistry and represents and warrants to the
 licensee that it is not a competitor of Gaussian, Inc. and that
 it will not use this program in any manner prohibited above.
 ---------------------------------------------------------------
  

 Cite this work as:
 Gaussian 16, Revision C.01,
 M. J. Frisch, G. W. Trucks, H. B. Schlegel, G. E. Scuseria, 
 M. A. Robb, J. R. Cheeseman, G. Scalmani, V. Barone, 
 G. A. Petersson, H. Nakatsuji, X. Li, M. Caricato, A. V. Marenich, 
 J. Bloino, B. G. Janesko, R. Gomperts, B. Mennucci, H. P. Hratchian, 
 J. V. Ortiz, A. F. Izmaylov, J. L. Sonnenberg, D. Williams-Young, 
 F. Ding, F. Lipparini, F. Egidi, J. Goings, B. Peng, A. Petrone, 
 T. Henderson, D. Ranasinghe, V. G. Zakrzewski, J. Gao, N. Rega, 
 G. Zheng, W. Liang, M. Hada, M. Ehara, K. Toyota, R. Fukuda, 
 J. Hasegawa, M. Ishida, T. Nakajima, Y. Honda, O. Kitao, H. Nakai, 
 T. Vreven, K. Throssell, J. A. Montgomery, Jr., J. E. Peralta, 
 F. Ogliaro, M. J. Bearpark, J. J. Heyd, E. N. Brothers, K. N. Kudin, 
 V. N. Staroverov, T. A. Keith, R. Kobayashi, J. Normand, 
 K. Raghavachari, A. P. Rendell, J. C. Burant, S. S. Iyengar, 
 J. Tomasi, M. Cossi, J. M. Millam, M. Klene, C. Adamo, R. Cammi, 
 J. W. Ochterski, R. L. Martin, K. Morokuma, O. Farkas, 
 J. B. Foresman, and D. J. Fox, Gaussian, Inc., Wallingford CT, 2019.
 
 ******************************************
 Gaussian 16:  ES64L-G16RevC.01  3-Jul-2019
                26-Jan-2023 
 ******************************************
 %oldchk="../geometry.chk"
 %chk=S_14.chk
 %mem=5GB
 %nprocshared=1
 Will use up to    1 processors via shared memory.
 Copying data from "../geometry.chk" to current chk file "S_14.chk"
 IOpt=  2 FromEx=T IUOpen= 4 IOptOp= 5 NList=   0 IFRang= 0 IUIn= 4 IUOut= 2.
 ----------------------------------------------------------------------
 #p AM1/chkbasis #p Geom=AllCheck Guess=(Read,Only) Density=(Check,Tran
 sition=14) Pop=(Minimal,NTO,SaveNTO)
 ----------------------------------------------------------------------
 Warning!  Basis set taken from checkpoint file.
 1/29=7,38=1,172=1/1;
 2/12=2,40=1/2;
 3/5=2,6=2,14=-4,25=1,41=700000,67=1,89=1,116=-2/1,2,3;
 4/5=1,35=1/1;
 6/7=2,8=2,9=2,10=2,11=2,22=-10,28=1,29=14,89=11/1;
 99/5=2/99;
 Leave Link    1 at Thu Jan 26 17:36:21 2023, MaxMem=   671088640 cpu:               0.6 elap:               1.9
 (Enter /software/gaussian/g16-c01/avx2/g16/l101.exe)
 Structure from the checkpoint file:  "S_14.chk"
 -------
 TitleMe
 -------
 Charge =  0 Multiplicity = 1
 Z-Matrix found in chk file.
 C,0,10.89290518,13.08106905,9.8476411
 C,0,9.13081919,11.45613036,10.04321488
 C,0,10.07408255,10.41836407,9.93680423
 C,0,11.43818989,10.69524262,9.7851804
 C,0,11.8395912,12.03973972,9.74229631
 C,0,13.15077882,12.69655179,9.62227587
 N,0,13.00796131,14.06670827,9.65708091
 N,0,14.30617838,11.99670559,9.50403474
 N,0,17.85792525,15.26753101,9.04057625
 C,0,15.52376152,12.5526622,9.36075207
 C,0,16.77976235,11.82035716,9.27386941
 C,0,17.0712909,10.44262928,9.33100092
 C,0,18.40660306,10.04717784,9.26056309
 C,0,19.44322281,10.99753609,9.13651524
 C,0,19.16714824,12.3636231,9.07802352
 C,0,17.82153677,12.77685279,9.14677554
 C,0,17.20363257,14.0965262,9.14509754
 N,0,15.83943345,13.89845755,9.28124197
 C,0,11.66226143,14.33382053,9.78545117
 C,0,9.52622462,12.79867522,10.00016565
 C,0,17.26242814,16.48580013,9.07671845
 C,0,19.40531993,18.01987916,8.92469102
 C,0,13.41242418,18.27179878,9.58813682
 C,0,12.17213654,19.00051723,9.82037651
 C,0,11.89619458,20.37540235,9.9614976
 C,0,10.58048893,20.7634503,10.2152102
 C,0,9.54602751,19.80929184,10.32824674
 C,0,9.80566227,18.44595949,10.19251173
 C,0,11.13133131,18.041625,9.93679593
 C,0,11.73398574,16.72420541,9.78914554
 N,0,13.08865499,16.92486934,9.58417144
 N,0,11.07417047,15.55317208,9.86410493
 C,0,18.03319773,17.73901623,9.01977291
 C,0,19.80760889,19.3609327,8.93932429
 C,0,18.86492458,20.39940315,9.04750894
 C,0,17.49553982,20.12383538,9.14418849
 C,0,17.08762275,18.78065321,9.12896456
 C,0,15.77507526,18.12411495,9.24965102
 N,0,15.91757012,16.75494595,9.20283554
 N,0,14.62720069,18.82619572,9.42132986
 H,0,13.77150487,16.17248155,9.47225515
 H,0,15.15497095,14.65503494,9.34470017
 H,0,10.34322283,21.82062659,10.33311731
 H,0,12.69290925,21.11391214,9.88080529
 H,0,16.76922943,20.93109053,9.23731223
 H,0,19.20967916,21.43357084,9.06094276
 H,0,20.86729419,19.60752227,8.87066967
 H,0,20.13971502,17.21796245,8.85071599
 H,0,19.96973962,13.09478945,8.9886904
 H,0,20.47642747,10.65373231,9.09179863
 H,0,18.65892897,8.98840548,9.31184388
 H,0,16.27345956,9.70937412,9.44121664
 H,0,12.16802434,9.88886452,9.71752113
 H,0,9.73604592,9.38342393,9.98751416
 H,0,8.07751005,11.20771448,10.1734029
 H,0,8.79420524,13.60036164,10.09603381
 H,0,9.00954091,17.70975094,10.2944517
 H,0,8.53074024,20.14737983,10.53407958
 C,0,10.32840813,11.8248169,13.41260305
 C,0,8.6047891,10.16957832,13.68194651
 C,0,9.56580226,9.14864405,13.56759418
 C,0,10.9199026,9.449959,13.37779416
 C,0,11.29269809,10.80093255,13.3001341
 C,0,12.58253411,11.48117443,13.10124087
 N,0,12.40670877,12.84651762,13.08178834
 N,0,13.7526726,10.80337713,13.00170535
 N,0,17.23643964,14.14495834,12.51589796
 C,0,14.95747542,11.38409337,12.85396956
 C,0,16.23539845,10.68585246,12.84841869
 C,0,16.56530129,9.31994305,12.95406934
 C,0,17.91308062,8.96162027,12.92456475
 C,0,18.92578042,9.93710743,12.7976306
 C,0,18.61253173,11.29214994,12.69558992
 C,0,17.25433171,11.66565704,12.7194202
 C,0,16.60208492,12.96382332,12.63287796
 N,0,15.23908759,12.73329157,12.7135149
 C,0,11.06516436,13.09088722,13.27390252
 C,0,8.97271055,11.51854229,13.60783513
 C,0,16.61928593,15.35192305,12.51004277
 C,0,18.73911807,16.92061676,12.45254628
 C,0,12.7398666,17.05485748,13.03766898
 C,0,11.50767559,17.75978167,13.35952405
 C,0,11.22601452,19.12904252,13.53463398
 C,0,9.91797654,19.49847646,13.84648077
 C,0,8.90043827,18.53018236,13.98855866
 C,0,9.16901333,17.17133691,13.824081
 C,0,10.4860073,16.78526977,13.50451934
 C,0,11.09370815,15.48063664,13.28272219
 N,0,12.43000115,15.70570683,12.99604067
 N,0,10.45776824,14.2987767,13.37719669
 C,0,17.37016764,16.616368,12.51153554
 C,0,19.11689287,18.26813625,12.49180358
 C,0,18.15439644,19.2885272,12.59400063
 C,0,16.78810498,18.98923385,12.65743203
 C,0,16.40434707,17.63987896,12.61154416
 C,0,15.10074272,16.96045634,12.66467755
 N,0,15.26446889,15.59534297,12.57715377
 N,0,13.94058636,17.63539048,12.85667042
 H,0,13.1003111,14.96781429,12.77112852
 H,0,14.52792426,13.46634781,12.67135624
 H,0,9.67194646,20.55170057,13.97964793
 H,0,12.00893393,19.87714569,13.41846938
 H,0,16.04457677,19.78267274,12.72842022
 H,0,18.48060312,20.32836244,12.61445926
 H,0,20.17229319,18.53454054,12.43364709
 H,0,19.48672413,16.13232924,12.36780489
 H,0,19.39396234,12.04361196,12.59188338
 H,0,19.96850511,9.62111278,12.77643662
 H,0,18.19345142,7.91132384,13.00099325
 H,0,15.78600667,8.56537955,13.05412047
 H,0,11.66104031,8.65602551,13.28738318
 H,0,9.24779741,8.10761333,13.62776681
 H,0,7.55814897,9.90280621,13.82960456
 H,0,8.22495564,12.30697632,13.69314536
 H,0,8.3827323,16.42588795,13.93713532
 H,0,7.88871497,18.85419512,14.23232135
 C,0,13.35360852,14.04768045,22.32056591
 C,0,14.78830045,13.93978215,22.55968748
 C,0,15.61749049,15.07311125,22.40445527
 C,0,15.03880204,16.35096521,22.00521863
 C,0,13.64909051,16.45539675,21.77344435
 C,0,12.79305862,15.28544911,21.93366815
 C,0,12.90921541,12.81437809,21.68124023
 C,0,14.06925128,11.94435523,21.52519591
 C,0,15.2306151,12.63984924,22.06800642
 C,0,16.48823434,12.51383828,21.43663739
 C,0,16.91572898,14.94311332,21.75263074
 C,0,15.97941018,17.01076579,21.10677885
 C,0,15.50100452,17.75447684,20.00490285
 C,0,14.06607445,17.86258916,19.76583162
 C,0,13.15485852,17.2233269,20.63616866
 C,0,11.99290458,16.52814846,20.09384109
 C,0,11.76969584,15.33018292,20.89535777
 C,0,11.3392105,14.13545724,20.27592047
 C,0,11.91813882,12.85750216,20.67519063
 C,0,14.20175676,11.14460473,20.36810247
 C,0,13.17817478,11.1880282,19.33005917
 C,0,12.05423713,12.03118633,19.48119476
 C,0,11.55863563,12.79869592,18.34378786
 C,0,11.1170542,14.09962047,18.83490452
 C,0,11.33296022,15.26082046,18.05870193
 C,0,11.77788202,16.49445891,18.69782
 C,0,12.71865949,17.15487614,17.79957442
 C,0,13.84503216,17.82816954,18.32454077
 C,0,17.13936453,16.14066262,20.95070806
 C,0,16.43824606,16.02780987,16.36156656
 C,0,17.43037056,15.98465763,17.36577224
 C,0,18.00806998,14.70567878,17.76477535
 C,0,17.57845106,13.50960359,17.14626629
 C,0,16.55443203,13.55423935,16.10986247
 C,0,14.55879259,14.89965527,15.49718381
 C,0,14.11652171,16.19964799,15.98288783
 C,0,15.27781218,16.89825349,16.51757166
 C,0,15.14420718,17.6992445,17.67309451
 C,0,16.16771041,17.65332141,18.7116869
 C,0,17.29187095,16.81022109,18.56054667
 C,0,18.22726491,14.74143015,19.20616843
 C,0,18.01057863,13.5812676,19.98309413
 C,0,17.56677754,12.34744304,19.34421717
 C,0,17.35406755,12.31177715,17.94797679
 C,0,16.19244814,11.61561747,17.40541379
 C,0,15.69786109,12.38413541,16.26984171
 C,0,14.30780095,12.49087815,16.0443011
 C,0,13.73027225,13.76887102,15.64995911
 C,0,12.85624443,16.3283666,16.60656652
 C,0,11.99960004,15.15821211,16.76619218
 C,0,12.43161404,13.89866192,16.29668972
 C,0,12.20442919,12.69906596,17.09161645
 C,0,13.36503386,11.82840505,16.93576284
 C,0,13.84435952,11.08411459,18.03637136
 C,0,15.27967137,10.97715057,18.27514621
 C,0,15.50017512,11.01437007,19.71636311
 C,0,16.62535418,11.68808039,20.24227048
 C,0,17.78475079,16.04164199,19.69777146
 C,0,17.34423523,13.68386181,21.27645777
 C,0,15.9918334,14.79242302,15.7323304
 Recover connectivity data from disk.
 ITRead=  0  0  0  0  0  0  0  0  0  0  0  0  0  0  0  0  0  0  0  0
 ITRead=  0  0  0  0  0  0  0  0  0  0  0  0  0  0  0  0  0  0  0  0
 ITRead=  0  0  0  0  0  0  0  0  0  0  0  0  0  0  0  0  0  0  0  0
 ITRead=  0  0  0  0  0  0  0  0  0  0  0  0  0  0  0  0  0  0  0  0
 ITRead=  0  0  0  0  0  0  0  0  0  0  0  0  0  0  0  0  0  0  0  0
 ITRead=  0  0  0  0  0  0  0  0  0  0  0  0  0  0  0  0  0  0  0  0
 ITRead=  0  0  0  0  0  0  0  0  0  0  0  0  0  0  0  0  0  0  0  0
 ITRead=  0  0  0  0  0  0  0  0  0  0  0  0  0  0  0  0  0  0  0  0
 ITRead=  0  0  0  0  0  0  0  0  0  0  0  0  0  0  0  0
 MicOpt= -1 -1 -1 -1 -1 -1 -1 -1 -1 -1 -1 -1 -1 -1 -1 -1 -1 -1 -1 -1
 MicOpt= -1 -1 -1 -1 -1 -1 -1 -1 -1 -1 -1 -1 -1 -1 -1 -1 -1 -1 -1 -1
 MicOpt= -1 -1 -1 -1 -1 -1 -1 -1 -1 -1 -1 -1 -1 -1 -1 -1 -1 -1 -1 -1
 MicOpt= -1 -1 -1 -1 -1 -1 -1 -1 -1 -1 -1 -1 -1 -1 -1 -1 -1 -1 -1 -1
 MicOpt= -1 -1 -1 -1 -1 -1 -1 -1 -1 -1 -1 -1 -1 -1 -1 -1 -1 -1 -1 -1
 MicOpt= -1 -1 -1 -1 -1 -1 -1 -1 -1 -1 -1 -1 -1 -1 -1 -1 -1 -1 -1 -1
 MicOpt= -1 -1 -1 -1 -1 -1 -1 -1 -1 -1 -1 -1 -1 -1 -1 -1 -1 -1 -1 -1
 MicOpt= -1 -1 -1 -1 -1 -1 -1 -1 -1 -1 -1 -1 -1 -1 -1 -1 -1 -1 -1 -1
 MicOpt= -1 -1 -1 -1 -1 -1 -1 -1 -1 -1 -1 -1 -1 -1 -1 -1
 NAtoms=    176 NQM=      176 NQMF=       0 NMMI=      0 NMMIF=      0
                NMic=       0 NMicF=      0.
                    Isotopes and Nuclear Properties:
 (Nuclear quadrupole moments (NQMom) in fm**2, nuclear magnetic moments (NMagM)
  in nuclear magnetons)

  Atom         1           2           3           4           5           6           7           8           9          10
 IAtWgt=          12          12          12          12          12          12          14          14          14          12
 AtmWgt=  12.0000000  12.0000000  12.0000000  12.0000000  12.0000000  12.0000000  14.0030740  14.0030740  14.0030740  12.0000000
 NucSpn=           0           0           0           0           0           0           2           2           2           0
 AtZEff=   3.9000000   3.9000000   3.9000000   3.9000000   3.9000000   3.9000000   4.9000000   4.9000000   4.9000000   3.9000000
 NQMom=    0.0000000   0.0000000   0.0000000   0.0000000   0.0000000   0.0000000   2.0440000   2.0440000   2.0440000   0.0000000
 NMagM=    0.0000000   0.0000000   0.0000000   0.0000000   0.0000000   0.0000000   0.4037610   0.4037610   0.4037610   0.0000000
 AtZNuc=   6.0000000   6.0000000   6.0000000   6.0000000   6.0000000   6.0000000   7.0000000   7.0000000   7.0000000   6.0000000

  Atom        11          12          13          14          15          16          17          18          19          20
 IAtWgt=          12          12          12          12          12          12          12          14          12          12
 AtmWgt=  12.0000000  12.0000000  12.0000000  12.0000000  12.0000000  12.0000000  12.0000000  14.0030740  12.0000000  12.0000000
 NucSpn=           0           0           0           0           0           0           0           2           0           0
 AtZEff=   3.9000000   3.9000000   3.9000000   3.9000000   3.9000000   3.9000000   3.9000000   4.9000000   3.9000000   3.9000000
 NQMom=    0.0000000   0.0000000   0.0000000   0.0000000   0.0000000   0.0000000   0.0000000   2.0440000   0.0000000   0.0000000
 NMagM=    0.0000000   0.0000000   0.0000000   0.0000000   0.0000000   0.0000000   0.0000000   0.4037610   0.0000000   0.0000000
 AtZNuc=   6.0000000   6.0000000   6.0000000   6.0000000   6.0000000   6.0000000   6.0000000   7.0000000   6.0000000   6.0000000

  Atom        21          22          23          24          25          26          27          28          29          30
 IAtWgt=          12          12          12          12          12          12          12          12          12          12
 AtmWgt=  12.0000000  12.0000000  12.0000000  12.0000000  12.0000000  12.0000000  12.0000000  12.0000000  12.0000000  12.0000000
 NucSpn=           0           0           0           0           0           0           0           0           0           0
 AtZEff=   3.9000000   3.9000000   3.9000000   3.9000000   3.9000000   3.9000000   3.9000000   3.9000000   3.9000000   3.9000000
 NQMom=    0.0000000   0.0000000   0.0000000   0.0000000   0.0000000   0.0000000   0.0000000   0.0000000   0.0000000   0.0000000
 NMagM=    0.0000000   0.0000000   0.0000000   0.0000000   0.0000000   0.0000000   0.0000000   0.0000000   0.0000000   0.0000000
 AtZNuc=   6.0000000   6.0000000   6.0000000   6.0000000   6.0000000   6.0000000   6.0000000   6.0000000   6.0000000   6.0000000

  Atom        31          32          33          34          35          36          37          38          39          40
 IAtWgt=          14          14          12          12          12          12          12          12          14          14
 AtmWgt=  14.0030740  14.0030740  12.0000000  12.0000000  12.0000000  12.0000000  12.0000000  12.0000000  14.0030740  14.0030740
 NucSpn=           2           2           0           0           0           0           0           0           2           2
 AtZEff=   4.9000000   4.9000000   3.9000000   3.9000000   3.9000000   3.9000000   3.9000000   3.9000000   4.9000000   4.9000000
 NQMom=    2.0440000   2.0440000   0.0000000   0.0000000   0.0000000   0.0000000   0.0000000   0.0000000   2.0440000   2.0440000
 NMagM=    0.4037610   0.4037610   0.0000000   0.0000000   0.0000000   0.0000000   0.0000000   0.0000000   0.4037610   0.4037610
 AtZNuc=   7.0000000   7.0000000   6.0000000   6.0000000   6.0000000   6.0000000   6.0000000   6.0000000   7.0000000   7.0000000

  Atom        41          42          43          44          45          46          47          48          49          50
 IAtWgt=           1           1           1           1           1           1           1           1           1           1
 AtmWgt=   1.0078250   1.0078250   1.0078250   1.0078250   1.0078250   1.0078250   1.0078250   1.0078250   1.0078250   1.0078250
 NucSpn=           1           1           1           1           1           1           1           1           1           1
 AtZEff=   1.0000000   1.0000000   1.0000000   1.0000000   1.0000000   1.0000000   1.0000000   1.0000000   1.0000000   1.0000000
 NQMom=    0.0000000   0.0000000   0.0000000   0.0000000   0.0000000   0.0000000   0.0000000   0.0000000   0.0000000   0.0000000
 NMagM=    2.7928460   2.7928460   2.7928460   2.7928460   2.7928460   2.7928460   2.7928460   2.7928460   2.7928460   2.7928460
 AtZNuc=   1.0000000   1.0000000   1.0000000   1.0000000   1.0000000   1.0000000   1.0000000   1.0000000   1.0000000   1.0000000

  Atom        51          52          53          54          55          56          57          58          59          60
 IAtWgt=           1           1           1           1           1           1           1           1          12          12
 AtmWgt=   1.0078250   1.0078250   1.0078250   1.0078250   1.0078250   1.0078250   1.0078250   1.0078250  12.0000000  12.0000000
 NucSpn=           1           1           1           1           1           1           1           1           0           0
 AtZEff=   1.0000000   1.0000000   1.0000000   1.0000000   1.0000000   1.0000000   1.0000000   1.0000000   3.9000000   3.9000000
 NQMom=    0.0000000   0.0000000   0.0000000   0.0000000   0.0000000   0.0000000   0.0000000   0.0000000   0.0000000   0.0000000
 NMagM=    2.7928460   2.7928460   2.7928460   2.7928460   2.7928460   2.7928460   2.7928460   2.7928460   0.0000000   0.0000000
 AtZNuc=   1.0000000   1.0000000   1.0000000   1.0000000   1.0000000   1.0000000   1.0000000   1.0000000   6.0000000   6.0000000

  Atom        61          62          63          64          65          66          67          68          69          70
 IAtWgt=          12          12          12          12          14          14          14          12          12          12
 AtmWgt=  12.0000000  12.0000000  12.0000000  12.0000000  14.0030740  14.0030740  14.0030740  12.0000000  12.0000000  12.0000000
 NucSpn=           0           0           0           0           2           2           2           0           0           0
 AtZEff=   3.9000000   3.9000000   3.9000000   3.9000000   4.9000000   4.9000000   4.9000000   3.9000000   3.9000000   3.9000000
 NQMom=    0.0000000   0.0000000   0.0000000   0.0000000   2.0440000   2.0440000   2.0440000   0.0000000   0.0000000   0.0000000
 NMagM=    0.0000000   0.0000000   0.0000000   0.0000000   0.4037610   0.4037610   0.4037610   0.0000000   0.0000000   0.0000000
 AtZNuc=   6.0000000   6.0000000   6.0000000   6.0000000   7.0000000   7.0000000   7.0000000   6.0000000   6.0000000   6.0000000

  Atom        71          72          73          74          75          76          77          78          79          80
 IAtWgt=          12          12          12          12          12          14          12          12          12          12
 AtmWgt=  12.0000000  12.0000000  12.0000000  12.0000000  12.0000000  14.0030740  12.0000000  12.0000000  12.0000000  12.0000000
 NucSpn=           0           0           0           0           0           2           0           0           0           0
 AtZEff=   3.9000000   3.9000000   3.9000000   3.9000000   3.9000000   4.9000000   3.9000000   3.9000000   3.9000000   3.9000000
 NQMom=    0.0000000   0.0000000   0.0000000   0.0000000   0.0000000   2.0440000   0.0000000   0.0000000   0.0000000   0.0000000
 NMagM=    0.0000000   0.0000000   0.0000000   0.0000000   0.0000000   0.4037610   0.0000000   0.0000000   0.0000000   0.0000000
 AtZNuc=   6.0000000   6.0000000   6.0000000   6.0000000   6.0000000   7.0000000   6.0000000   6.0000000   6.0000000   6.0000000

  Atom        81          82          83          84          85          86          87          88          89          90
 IAtWgt=          12          12          12          12          12          12          12          12          14          14
 AtmWgt=  12.0000000  12.0000000  12.0000000  12.0000000  12.0000000  12.0000000  12.0000000  12.0000000  14.0030740  14.0030740
 NucSpn=           0           0           0           0           0           0           0           0           2           2
 AtZEff=   3.9000000   3.9000000   3.9000000   3.9000000   3.9000000   3.9000000   3.9000000   3.9000000   4.9000000   4.9000000
 NQMom=    0.0000000   0.0000000   0.0000000   0.0000000   0.0000000   0.0000000   0.0000000   0.0000000   2.0440000   2.0440000
 NMagM=    0.0000000   0.0000000   0.0000000   0.0000000   0.0000000   0.0000000   0.0000000   0.0000000   0.4037610   0.4037610
 AtZNuc=   6.0000000   6.0000000   6.0000000   6.0000000   6.0000000   6.0000000   6.0000000   6.0000000   7.0000000   7.0000000

  Atom        91          92          93          94          95          96          97          98          99         100
 IAtWgt=          12          12          12          12          12          12          14          14           1           1
 AtmWgt=  12.0000000  12.0000000  12.0000000  12.0000000  12.0000000  12.0000000  14.0030740  14.0030740   1.0078250   1.0078250
 NucSpn=           0           0           0           0           0           0           2           2           1           1
 AtZEff=   3.9000000   3.9000000   3.9000000   3.9000000   3.9000000   3.9000000   4.9000000   4.9000000   1.0000000   1.0000000
 NQMom=    0.0000000   0.0000000   0.0000000   0.0000000   0.0000000   0.0000000   2.0440000   2.0440000   0.0000000   0.0000000
 NMagM=    0.0000000   0.0000000   0.0000000   0.0000000   0.0000000   0.0000000   0.4037610   0.4037610   2.7928460   2.7928460
 AtZNuc=   6.0000000   6.0000000   6.0000000   6.0000000   6.0000000   6.0000000   7.0000000   7.0000000   1.0000000   1.0000000

  Atom       101         102         103         104         105         106         107         108         109         110
 IAtWgt=           1           1           1           1           1           1           1           1           1           1
 AtmWgt=   1.0078250   1.0078250   1.0078250   1.0078250   1.0078250   1.0078250   1.0078250   1.0078250   1.0078250   1.0078250
 NucSpn=           1           1           1           1           1           1           1           1           1           1
 AtZEff=   1.0000000   1.0000000   1.0000000   1.0000000   1.0000000   1.0000000   1.0000000   1.0000000   1.0000000   1.0000000
 NQMom=    0.0000000   0.0000000   0.0000000   0.0000000   0.0000000   0.0000000   0.0000000   0.0000000   0.0000000   0.0000000
 NMagM=    2.7928460   2.7928460   2.7928460   2.7928460   2.7928460   2.7928460   2.7928460   2.7928460   2.7928460   2.7928460
 AtZNuc=   1.0000000   1.0000000   1.0000000   1.0000000   1.0000000   1.0000000   1.0000000   1.0000000   1.0000000   1.0000000

  Atom       111         112         113         114         115         116         117         118         119         120
 IAtWgt=           1           1           1           1           1           1          12          12          12          12
 AtmWgt=   1.0078250   1.0078250   1.0078250   1.0078250   1.0078250   1.0078250  12.0000000  12.0000000  12.0000000  12.0000000
 NucSpn=           1           1           1           1           1           1           0           0           0           0
 AtZEff=   1.0000000   1.0000000   1.0000000   1.0000000   1.0000000   1.0000000   3.9000000   3.9000000   3.9000000   3.9000000
 NQMom=    0.0000000   0.0000000   0.0000000   0.0000000   0.0000000   0.0000000   0.0000000   0.0000000   0.0000000   0.0000000
 NMagM=    2.7928460   2.7928460   2.7928460   2.7928460   2.7928460   2.7928460   0.0000000   0.0000000   0.0000000   0.0000000
 AtZNuc=   1.0000000   1.0000000   1.0000000   1.0000000   1.0000000   1.0000000   6.0000000   6.0000000   6.0000000   6.0000000

  Atom       121         122         123         124         125         126         127         128         129         130
 IAtWgt=          12          12          12          12          12          12          12          12          12          12
 AtmWgt=  12.0000000  12.0000000  12.0000000  12.0000000  12.0000000  12.0000000  12.0000000  12.0000000  12.0000000  12.0000000
 NucSpn=           0           0           0           0           0           0           0           0           0           0
 AtZEff=   3.9000000   3.9000000   3.9000000   3.9000000   3.9000000   3.9000000   3.9000000   3.9000000   3.9000000   3.9000000
 NQMom=    0.0000000   0.0000000   0.0000000   0.0000000   0.0000000   0.0000000   0.0000000   0.0000000   0.0000000   0.0000000
 NMagM=    0.0000000   0.0000000   0.0000000   0.0000000   0.0000000   0.0000000   0.0000000   0.0000000   0.0000000   0.0000000
 AtZNuc=   6.0000000   6.0000000   6.0000000   6.0000000   6.0000000   6.0000000   6.0000000   6.0000000   6.0000000   6.0000000

  Atom       131         132         133         134         135         136         137         138         139         140
 IAtWgt=          12          12          12          12          12          12          12          12          12          12
 AtmWgt=  12.0000000  12.0000000  12.0000000  12.0000000  12.0000000  12.0000000  12.0000000  12.0000000  12.0000000  12.0000000
 NucSpn=           0           0           0           0           0           0           0           0           0           0
 AtZEff=   3.9000000   3.9000000   3.9000000   3.9000000   3.9000000   3.9000000   3.9000000   3.9000000   3.9000000   3.9000000
 NQMom=    0.0000000   0.0000000   0.0000000   0.0000000   0.0000000   0.0000000   0.0000000   0.0000000   0.0000000   0.0000000
 NMagM=    0.0000000   0.0000000   0.0000000   0.0000000   0.0000000   0.0000000   0.0000000   0.0000000   0.0000000   0.0000000
 AtZNuc=   6.0000000   6.0000000   6.0000000   6.0000000   6.0000000   6.0000000   6.0000000   6.0000000   6.0000000   6.0000000

  Atom       141         142         143         144         145         146         147         148         149         150
 IAtWgt=          12          12          12          12          12          12          12          12          12          12
 AtmWgt=  12.0000000  12.0000000  12.0000000  12.0000000  12.0000000  12.0000000  12.0000000  12.0000000  12.0000000  12.0000000
 NucSpn=           0           0           0           0           0           0           0           0           0           0
 AtZEff=   3.9000000   3.9000000   3.9000000   3.9000000   3.9000000   3.9000000   3.9000000   3.9000000   3.9000000   3.9000000
 NQMom=    0.0000000   0.0000000   0.0000000   0.0000000   0.0000000   0.0000000   0.0000000   0.0000000   0.0000000   0.0000000
 NMagM=    0.0000000   0.0000000   0.0000000   0.0000000   0.0000000   0.0000000   0.0000000   0.0000000   0.0000000   0.0000000
 AtZNuc=   6.0000000   6.0000000   6.0000000   6.0000000   6.0000000   6.0000000   6.0000000   6.0000000   6.0000000   6.0000000

  Atom       151         152         153         154         155         156         157         158         159         160
 IAtWgt=          12          12          12          12          12          12          12          12          12          12
 AtmWgt=  12.0000000  12.0000000  12.0000000  12.0000000  12.0000000  12.0000000  12.0000000  12.0000000  12.0000000  12.0000000
 NucSpn=           0           0           0           0           0           0           0           0           0           0
 AtZEff=   3.9000000   3.9000000   3.9000000   3.9000000   3.9000000   3.9000000   3.9000000   3.9000000   3.9000000   3.9000000
 NQMom=    0.0000000   0.0000000   0.0000000   0.0000000   0.0000000   0.0000000   0.0000000   0.0000000   0.0000000   0.0000000
 NMagM=    0.0000000   0.0000000   0.0000000   0.0000000   0.0000000   0.0000000   0.0000000   0.0000000   0.0000000   0.0000000
 AtZNuc=   6.0000000   6.0000000   6.0000000   6.0000000   6.0000000   6.0000000   6.0000000   6.0000000   6.0000000   6.0000000

  Atom       161         162         163         164         165         166         167         168         169         170
 IAtWgt=          12          12          12          12          12          12          12          12          12          12
 AtmWgt=  12.0000000  12.0000000  12.0000000  12.0000000  12.0000000  12.0000000  12.0000000  12.0000000  12.0000000  12.0000000
 NucSpn=           0           0           0           0           0           0           0           0           0           0
 AtZEff=   3.9000000   3.9000000   3.9000000   3.9000000   3.9000000   3.9000000   3.9000000   3.9000000   3.9000000   3.9000000
 NQMom=    0.0000000   0.0000000   0.0000000   0.0000000   0.0000000   0.0000000   0.0000000   0.0000000   0.0000000   0.0000000
 NMagM=    0.0000000   0.0000000   0.0000000   0.0000000   0.0000000   0.0000000   0.0000000   0.0000000   0.0000000   0.0000000
 AtZNuc=   6.0000000   6.0000000   6.0000000   6.0000000   6.0000000   6.0000000   6.0000000   6.0000000   6.0000000   6.0000000

  Atom       171         172         173         174         175         176
 IAtWgt=          12          12          12          12          12          12
 AtmWgt=  12.0000000  12.0000000  12.0000000  12.0000000  12.0000000  12.0000000
 NucSpn=           0           0           0           0           0           0
 AtZEff=   3.9000000   3.9000000   3.9000000   3.9000000   3.9000000   3.9000000
 NQMom=    0.0000000   0.0000000   0.0000000   0.0000000   0.0000000   0.0000000
 NMagM=    0.0000000   0.0000000   0.0000000   0.0000000   0.0000000   0.0000000
 AtZNuc=   6.0000000   6.0000000   6.0000000   6.0000000   6.0000000   6.0000000
 Leave Link  101 at Thu Jan 26 17:36:22 2023, MaxMem=   671088640 cpu:               0.2 elap:               0.3
 (Enter /software/gaussian/g16-c01/avx2/g16/l202.exe)
 Stoichiometry    C124H36N16
 Framework group  C1[X(C124H36N16)]
 Deg. of freedom   522
 Full point group                 C1      NOp   1
 RotChk:  IX=0 Diff= 1.22D-13
 Largest Abelian subgroup         C1      NOp   1
 Largest concise Abelian subgroup C1      NOp   1
                         Standard orientation:                         
 ---------------------------------------------------------------------
 Center     Atomic      Atomic             Coordinates (Angstroms)
 Number     Number       Type             X           Y           Z
 ---------------------------------------------------------------------
      1          6           0        4.219451    3.908673    1.505823
      2          6           0        3.760644    6.226773    1.952513
      3          6           0        3.735168    6.489392    0.571061
      4          6           0        3.950283    5.468007   -0.362179
      5          6           0        4.192475    4.171904    0.119583
      6          6           0        4.429657    2.879047   -0.541693
      7          7           0        4.588473    1.881006    0.395125
      8          7           0        4.468172    2.748988   -1.890883
      9          7           0        5.460851   -1.911282   -2.798887
     10          6           0        4.712203    1.594943   -2.539539
     11          6           0        4.716925    1.425901   -3.986177
     12          6           0        4.468828    2.328761   -5.039589
     13          6           0        4.506928    1.844396   -6.346625
     14          6           0        4.784942    0.486202   -6.613392
     15          6           0        5.033009   -0.416629   -5.579375
     16          6           0        4.998927    0.060144   -4.253599
     17          6           0        5.177751   -0.607197   -2.970624
     18          7           0        4.989221    0.354076   -1.991228
     19          6           0        4.474501    2.465514    1.637742
     20          6           0        4.002607    4.935843    2.437878
     21          6           0        5.588168   -2.516953   -1.591802
     22          6           0        5.998005   -4.998426   -2.393564
     23          6           0        5.265561   -1.667988    2.585405
     24          6           0        5.116781   -1.523797    4.027748
     25          6           0        5.168582   -2.458644    5.081192
     26          6           0        4.948431   -2.003219    6.381252
     27          6           0        4.680811   -0.641951    6.643235
     28          6           0        4.625027    0.292945    5.610101
     29          6           0        4.845018   -0.155399    4.292199
     30          6           0        4.813999    0.538062    3.012067
     31          7           0        5.070832   -0.410891    2.036908
     32          7           0        4.560044    1.849200    2.842606
     33          6           0        5.838122   -3.961988   -1.460356
     34          6           0        6.182805   -6.299555   -1.910462
     35          6           0        6.206636   -6.563300   -0.528923
     36          6           0        6.045980   -5.532885    0.405386
     37          6           0        5.861356   -4.226612   -0.074544
     38          6           0        5.623528   -2.933235    0.588028
     39          7           0        5.476732   -1.934273   -0.348800
     40          7           0        5.532594   -2.816166    1.936373
     41          1           0        5.086747   -0.215519    1.033677
     42          1           0        5.021826    0.162443   -0.987665
     43          1           0        4.978495   -2.708097    7.211952
     44          1           0        5.368918   -3.510724    4.882056
     45          1           0        6.055695   -5.742947    1.474797
     46          1           0        6.347665   -7.587758   -0.183761
     47          1           0        6.305800   -7.123980   -2.613062
     48          1           0        5.970257   -4.799842   -3.464859
     49          1           0        5.240955   -1.465382   -5.788214
     50          1           0        4.799331    0.140002   -7.646664
     51          1           0        4.309498    2.520263   -7.178203
     52          1           0        4.240008    3.373675   -4.834306
     53          1           0        3.915562    5.672064   -1.432056
     54          1           0        3.530682    7.502375    0.224662
     55          1           0        3.576617    7.041087    2.653331
     56          1           0        4.008703    4.733266    3.508705
     57          1           0        4.404006    1.340193    5.811661
     58          1           0        4.506507   -0.322227    7.670305
     59          6           0        0.501569    4.792369    1.458708
     60          6           0       -0.033850    7.101921    1.861842
     61          6           0       -0.048729    7.341573    0.475742
     62          6           0        0.207471    6.311744   -0.437613
     63          6           0        0.484466    5.032134    0.068362
     64          6           0        0.802648    3.743562   -0.567489
     65          7           0        1.013850    2.776005    0.388901
     66          7           0        0.826082    3.584901   -1.913898
     67          7           0        1.849724   -1.087356   -2.726903
     68          6           0        1.077821    2.419604   -2.537852
     69          6           0        1.007342    2.200317   -3.975768
     70          6           0        0.713640    3.064657   -5.049250
     71          6           0        0.716777    2.538391   -6.341074
     72          6           0        1.000793    1.175172   -6.573920
     73          6           0        1.289680    0.308906   -5.519973
     74          6           0        1.294135    0.830197   -4.211149
     75          6           0        1.553219    0.211134   -2.919721
     76          7           0        1.414997    1.204218   -1.964688
     77          6           0        0.833626    3.367946    1.619141
     78          6           0        0.239255    5.826389    2.370756
     79          6           0        2.016578   -1.665806   -1.512312
     80          6           0        2.337392   -4.172499   -2.268197
     81          6           0        1.665505   -0.735682    2.639782
     82          6           0        1.424796   -0.588845    4.067824
     83          6           0        1.442052   -1.520070    5.124892
     84          6           0        1.161856   -1.061880    6.411844
     85          6           0        0.863792    0.296690    6.653939
     86          6           0        0.837260    1.226263    5.614305
     87          6           0        1.122879    0.776748    4.309698
     88          6           0        1.167154    1.466379    3.027898
     89          7           0        1.507987    0.519503    2.076173
     90          7           0        0.892787    2.769215    2.834303
     91          6           0        2.209939   -3.115022   -1.354102
     92          6           0        2.498291   -5.467032   -1.759908
     93          6           0        2.525092   -5.703839   -0.373818
     94          6           0        2.394002   -4.652426    0.541442
     95          6           0        2.239289   -3.352010    0.036352
     96          6           0        2.065204   -2.037527    0.673260
     97          7           0        1.959667   -1.049459   -0.280986
     98          7           0        1.950056   -1.894207    2.016599
     99          1           0        1.637556    0.725164    1.083549
    100          1           0        1.548253    1.060444   -0.961456
    101          1           0        1.176091   -1.760272    7.248259
    102          1           0        1.678604   -2.566953    4.939969
    103          1           0        2.423323   -4.838450    1.614733
    104          1           0        2.659633   -6.722463   -0.009964
    105          1           0        2.613651   -6.305805   -2.446475
    106          1           0        2.322492   -3.991270   -3.342640
    107          1           0        1.514356   -0.741286   -5.700806
    108          1           0        0.996060    0.798373   -7.596454
    109          1           0        0.496198    3.187525   -7.188152
    110          1           0        0.492177    4.116464   -4.872238
    111          1           0        0.197254    6.502031   -1.510681
    112          1           0       -0.263076    8.346096    0.110392
    113          1           0       -0.237665    7.924493    2.547598
    114          1           0        0.253610    5.645063    3.445445
    115          1           0        0.604103    2.273469    5.803277
    116          1           0        0.650009    0.620607    7.672449
    117          6           0       -7.938905    0.101473    1.012989
    118          6           0       -8.164153   -0.708173   -0.179025
    119          6           0       -7.832992   -2.081630   -0.172992
    120          6           0       -7.266013   -2.689854    1.025248
    121          6           0       -7.047690   -1.905507    2.179829
    122          6           0       -7.389528   -0.487639    2.173639
    123          6           0       -7.490920    1.421313    0.583348
    124          6           0       -7.439245    1.427304   -0.874138
    125          6           0       -7.855233    0.111241   -1.345365
    126          6           0       -7.224988   -0.468370   -2.469177
    127          6           0       -7.182317   -2.680018   -1.333057
    128          6           0       -6.265044   -3.664206    0.605755
    129          6           0       -5.077276   -3.823927    1.353956
    130          6           0       -4.852051   -3.014312    2.546292
    131          6           0       -5.821725   -2.070341    2.952628
    132          6           0       -5.406181   -0.754232    3.424548
    133          6           0       -6.374792    0.223970    2.942590
    134          6           0       -5.940712    1.502535    2.526374
    135          6           0       -6.507735    2.110690    1.327885
    136          6           0       -6.406131    2.122623   -1.541395
    137          6           0       -5.391851    2.835364   -0.773035
    138          6           0       -5.441837    2.829401    0.639218
    139          6           0       -4.215827    2.665740    1.412848
    140          6           0       -4.524034    1.845174    2.579155
    141          6           0       -3.585865    0.897176    3.046735
    142          6           0       -4.033587   -0.423221    3.476140
    143          6           0       -3.032718   -1.398185    3.056895
    144          6           0       -3.434877   -2.673427    2.599014
    145          6           0       -6.213355   -3.658099   -0.851717
    146          6           0       -1.701419   -2.571758   -0.687946
    147          6           0       -2.682764   -3.261514   -1.433467
    148          6           0       -3.249692   -2.651778   -2.631608
    149          6           0       -2.816707   -1.372788   -3.049257
    150          6           0       -1.803884   -0.660945   -2.279705
    151          6           0       -1.042504   -0.441645    0.074079
    152          6           0       -1.345500   -1.260384    1.239992
    153          6           0       -1.753003   -2.577836    0.770107
    154          6           0       -2.784405   -3.273273    1.438871
    155          6           0       -3.799587   -3.984066    0.669117
    156          6           0       -3.749585   -3.978283   -0.743280
    157          6           0       -4.666811   -2.992612   -2.682051
    158          6           0       -5.605561   -2.045052   -3.148336
    159          6           0       -5.158084   -0.725214   -3.578729
    160          6           0       -3.785513   -0.394012   -3.530181
    161          6           0       -3.369869    0.922698   -3.059132
    162          6           0       -2.145513    0.757401   -2.285577
    163          6           0       -1.933035    1.539356   -1.128888
    164          6           0       -1.370857    0.929711    0.068860
    165          6           0       -1.967798   -0.680341    2.366997
    166          6           0       -2.309085    0.738133    2.361129
    167          6           0       -2.016529    1.529153    1.228772
    168          6           0       -2.978927    2.511863    0.748538
    169          6           0       -2.927521    2.517989   -0.709771
    170          6           0       -4.114100    2.677772   -1.459144
    171          6           0       -4.338861    1.867059   -2.651118
    172          6           0       -5.755571    1.524302   -2.701739
    173          6           0       -6.158623    0.249333   -3.158351
    174          6           0       -4.975618   -3.812115   -1.515392
    175          6           0       -6.883183   -1.886284   -2.462914
    176          6           0       -1.263755   -1.250323   -1.116503
 ---------------------------------------------------------------------
 Rotational constants (GHZ):           0.0172021           0.0108059           0.0107608
 Leave Link  202 at Thu Jan 26 17:36:22 2023, MaxMem=   671088640 cpu:               0.0 elap:               0.0
 (Enter /software/gaussian/g16-c01/avx2/g16/l301.exe)
 Standard basis: VSTO-2G (5D, 7F)
 Ernie: Thresh=  0.10000D-02 Tol=  0.10000D-05 Strict=F.
  NNHCO=     0 NNPyr=     0 NCTC=     0               EPep=         0.000000000
    EC=     15044.952631270  ECS=        49.343022457   EG=         4.609675839
   EHC=         0.000000000  EAt=      -684.638201762  AtH=        39.639293142
 EPDDG=         0.000000000  ECC=     15098.905329566 EAtT=       724.277494904
 There are   596 symmetry adapted cartesian basis functions of A   symmetry.
 There are   596 symmetry adapted basis functions of A   symmetry.
   596 basis functions,  3576 primitive gaussians,   596 cartesian basis functions
   306 alpha electrons      306 beta electrons
       nuclear repulsion energy     15823.1828244699 Hartrees.
 IExCor=    0 DFT=F Ex=HF Corr=None ExCW=0 ScaHFX=  1.000000
 ScaDFX=  1.000000  1.000000  1.000000  1.000000 ScalE2=  1.000000  1.000000
 IRadAn=      5 IRanWt=     -1 IRanGd=            0 ICorTp=0 IEmpDi=  4
 Integral buffers will be    131072 words long.
 Regular integral format.
 Two-electron integral symmetry is turned off.
 Leave Link  301 at Thu Jan 26 17:36:22 2023, MaxMem=   671088640 cpu:               0.1 elap:               0.1
 (Enter /software/gaussian/g16-c01/avx2/g16/l302.exe)
 Do NDO integrals.
 NPDir=0 NMtPBC=     1 NCelOv=     1 NCel=       1 NClECP=     1 NCelD=      1
         NCelK=      1 NCelE2=     1 NClLst=     1 CellRange=     0.0.
 One-electron integrals computed using PRISM.
 NBasis=   596 RedAO= F EigKep=  0.00D+00  NBF=   596
 NBsUse=   596 1.00D-04 EigRej=  0.00D+00 NBFU=   596
 Leave Link  302 at Thu Jan 26 17:36:22 2023, MaxMem=   671088640 cpu:               0.8 elap:               0.8
 (Enter /software/gaussian/g16-c01/avx2/g16/l303.exe)
 DipDrv:  MaxL=1.
 Leave Link  303 at Thu Jan 26 17:36:23 2023, MaxMem=   671088640 cpu:               0.0 elap:               0.1
 (Enter /software/gaussian/g16-c01/avx2/g16/l401.exe)
 Initial guess from the checkpoint file:  "S_14.chk"
 B after Tr=     0.000000   -0.000000    0.000000
         Rot=    1.000000   -0.000000   -0.000000   -0.000000 Ang=   0.00 deg.
 Guess basis will be translated and rotated to current coordinates.
 JPrj=0 DoOrth=T DoCkMO=T.
 Leave Link  401 at Thu Jan 26 17:36:23 2023, MaxMem=   671088640 cpu:               0.2 elap:               0.2
 (Enter /software/gaussian/g16-c01/avx2/g16/l601.exe)
 Using densities on the checkpoint file.
 Saving Alpha spin NTOs for state   14 to file 20524.

 **********************************************************************

            Population analysis using the Ground to state    14 trans dens.

 **********************************************************************

 Orbital symmetries:
       Occupied  (A) (A) (A) (A) (A) (A) (A) (A) (A) (A) (A) (A)
                 (A) (A) (A) (A) (A) (A) (A) (A) (A) (A) (A) (A)
                 (A) (A) (A) (A) (A) (A) (A) (A) (A) (A) (A) (A)
                 (A) (A) (A) (A) (A) (A) (A) (A) (A) (A) (A) (A)
                 (A) (A) (A) (A) (A) (A) (A) (A) (A) (A) (A) (A)
                 (A) (A) (A) (A) (A) (A) (A) (A) (A) (A) (A) (A)
                 (A) (A) (A) (A) (A) (A) (A) (A) (A) (A) (A) (A)
                 (A) (A) (A) (A) (A) (A) (A) (A) (A) (A) (A) (A)
                 (A) (A) (A) (A) (A) (A) (A) (A) (A) (A) (A) (A)
                 (A) (A) (A) (A) (A) (A) (A) (A) (A) (A) (A) (A)
                 (A) (A) (A) (A) (A) (A) (A) (A) (A) (A) (A) (A)
                 (A) (A) (A) (A) (A) (A) (A) (A) (A) (A) (A) (A)
                 (A) (A) (A) (A) (A) (A) (A) (A) (A) (A) (A) (A)
                 (A) (A) (A) (A) (A) (A) (A) (A) (A) (A) (A) (A)
                 (A) (A) (A) (A) (A) (A) (A) (A) (A) (A) (A) (A)
                 (A) (A) (A) (A) (A) (A) (A) (A) (A) (A) (A) (A)
                 (A) (A) (A) (A) (A) (A) (A) (A) (A) (A) (A) (A)
                 (A) (A) (A) (A) (A) (A) (A) (A) (A) (A) (A) (A)
                 (A) (A) (A) (A) (A) (A) (A) (A) (A) (A) (A) (A)
                 (A) (A) (A) (A) (A) (A) (A) (A) (A) (A) (A) (A)
                 (A) (A) (A) (A) (A) (A) (A) (A) (A) (A) (A) (A)
                 (A) (A) (A) (A) (A) (A) (A) (A) (A) (A) (A) (A)
                 (A) (A) (A) (A) (A) (A) (A) (A) (A) (A) (A) (A)
                 (A) (A) (A) (A) (A) (A) (A) (A) (A) (A) (A) (A)
                 (A) (A) (A) (A) (A) (A) (A) (A) (A) (A) (A) (A)
                 (A) (A) (A) (A) (A) (A)
       Virtual   (A) (A) (A) (A) (A) (A) (A) (A) (A) (A) (A) (A)
                 (A) (A) (A) (A) (A) (A) (A) (A) (A) (A) (A) (A)
                 (A) (A) (A) (A) (A) (A) (A) (A) (A) (A) (A) (A)
                 (A) (A) (A) (A) (A) (A) (A) (A) (A) (A) (A) (A)
                 (A) (A) (A) (A) (A) (A) (A) (A) (A) (A) (A) (A)
                 (A) (A) (A) (A) (A) (A) (A) (A) (A) (A) (A) (A)
                 (A) (A) (A) (A) (A) (A) (A) (A) (A) (A) (A) (A)
                 (A) (A) (A) (A) (A) (A) (A) (A) (A) (A) (A) (A)
                 (A) (A) (A) (A) (A) (A) (A) (A) (A) (A) (A) (A)
                 (A) (A) (A) (A) (A) (A) (A) (A) (A) (A) (A) (A)
                 (A) (A) (A) (A) (A) (A) (A) (A) (A) (A) (A) (A)
                 (A) (A) (A) (A) (A) (A) (A) (A) (A) (A) (A) (A)
                 (A) (A) (A) (A) (A) (A) (A) (A) (A) (A) (A) (A)
                 (A) (A) (A) (A) (A) (A) (A) (A) (A) (A) (A) (A)
                 (A) (A) (A) (A) (A) (A) (A) (A) (A) (A) (A) (A)
                 (A) (A) (A) (A) (A) (A) (A) (A) (A) (A) (A) (A)
                 (A) (A) (A) (A) (A) (A) (A) (A) (A) (A) (A) (A)
                 (A) (A) (A) (A) (A) (A) (A) (A) (A) (A) (A) (A)
                 (A) (A) (A) (A) (A) (A) (A) (A) (A) (A) (A) (A)
                 (A) (A) (A) (A) (A) (A) (A) (A) (A) (A) (A) (A)
                 (A) (A) (A) (A) (A) (A) (A) (A) (A) (A) (A) (A)
                 (A) (A) (A) (A) (A) (A) (A) (A) (A) (A) (A) (A)
                 (A) (A) (A) (A) (A) (A) (A) (A) (A) (A) (A) (A)
                 (A) (A) (A) (A) (A) (A) (A) (A) (A) (A) (A) (A)
                 (A) (A)
 The electronic state is 1-A.
 Alpha  occ. eigenvalues --   -0.00000  -0.00000  -0.00000  -0.00000  -0.00000
 Alpha  occ. eigenvalues --   -0.00000  -0.00000  -0.00000   0.00000   0.00000
 Alpha  occ. eigenvalues --    0.00000   0.00000   0.00000   0.00000   0.00000
 Alpha  occ. eigenvalues --    0.00000   0.00000   0.00000   0.00000   0.00000
 Alpha  occ. eigenvalues --    0.00000   0.00000   0.00000   0.00000   0.00000
 Alpha  occ. eigenvalues --    0.00000   0.00000   0.00000   0.00000   0.00000
 Alpha  occ. eigenvalues --    0.00000   0.00000   0.00000   0.00000   0.00000
 Alpha  occ. eigenvalues --    0.00000   0.00000   0.00000   0.00000   0.00000
 Alpha  occ. eigenvalues --    0.00000   0.00000   0.00000   0.00000   0.00000
 Alpha  occ. eigenvalues --    0.00000   0.00000   0.00000   0.00000   0.00000
 Alpha  occ. eigenvalues --    0.00000   0.00000   0.00000   0.00000   0.00000
 Alpha  occ. eigenvalues --    0.00000   0.00000   0.00000   0.00000   0.00000
 Alpha  occ. eigenvalues --    0.00000   0.00000   0.00000   0.00000   0.00000
 Alpha  occ. eigenvalues --    0.00000   0.00000   0.00000   0.00000   0.00000
 Alpha  occ. eigenvalues --    0.00000   0.00000   0.00000   0.00000   0.00000
 Alpha  occ. eigenvalues --    0.00000   0.00000   0.00000   0.00000   0.00000
 Alpha  occ. eigenvalues --    0.00000   0.00000   0.00000   0.00000   0.00000
 Alpha  occ. eigenvalues --    0.00000   0.00000   0.00000   0.00000   0.00000
 Alpha  occ. eigenvalues --    0.00000   0.00000   0.00000   0.00000   0.00000
 Alpha  occ. eigenvalues --    0.00000   0.00000   0.00000   0.00000   0.00000
 Alpha  occ. eigenvalues --    0.00000   0.00000   0.00000   0.00000   0.00000
 Alpha  occ. eigenvalues --    0.00000   0.00000   0.00000   0.00000   0.00000
 Alpha  occ. eigenvalues --    0.00000   0.00000   0.00000   0.00000   0.00000
 Alpha  occ. eigenvalues --    0.00000   0.00000   0.00000   0.00000   0.00000
 Alpha  occ. eigenvalues --    0.00000   0.00000   0.00000   0.00000   0.00000
 Alpha  occ. eigenvalues --    0.00000   0.00000   0.00000   0.00000   0.00000
 Alpha  occ. eigenvalues --    0.00000   0.00000   0.00000   0.00000   0.00000
 Alpha  occ. eigenvalues --    0.00000   0.00000   0.00000   0.00000   0.00000
 Alpha  occ. eigenvalues --    0.00000   0.00000   0.00000   0.00000   0.00000
 Alpha  occ. eigenvalues --    0.00000   0.00000   0.00000   0.00000   0.00000
 Alpha  occ. eigenvalues --    0.00000   0.00000   0.00000   0.00000   0.00000
 Alpha  occ. eigenvalues --    0.00000   0.00000   0.00000   0.00000   0.00000
 Alpha  occ. eigenvalues --    0.00000   0.00000   0.00000   0.00000   0.00000
 Alpha  occ. eigenvalues --    0.00000   0.00000   0.00000   0.00000   0.00000
 Alpha  occ. eigenvalues --    0.00000   0.00000   0.00000   0.00000   0.00000
 Alpha  occ. eigenvalues --    0.00000   0.00000   0.00000   0.00000   0.00000
 Alpha  occ. eigenvalues --    0.00000   0.00000   0.00000   0.00000   0.00000
 Alpha  occ. eigenvalues --    0.00000   0.00000   0.00000   0.00000   0.00000
 Alpha  occ. eigenvalues --    0.00000   0.00000   0.00000   0.00000   0.00000
 Alpha  occ. eigenvalues --    0.00000   0.00000   0.00000   0.00000   0.00000
 Alpha  occ. eigenvalues --    0.00000   0.00000   0.00000   0.00000   0.00000
 Alpha  occ. eigenvalues --    0.00000   0.00000   0.00000   0.00000   0.00000
 Alpha  occ. eigenvalues --    0.00000   0.00000   0.00000   0.00000   0.00000
 Alpha  occ. eigenvalues --    0.00000   0.00000   0.00000   0.00000   0.00000
 Alpha  occ. eigenvalues --    0.00000   0.00000   0.00000   0.00000   0.00000
 Alpha  occ. eigenvalues --    0.00000   0.00000   0.00000   0.00000   0.00000
 Alpha  occ. eigenvalues --    0.00000   0.00000   0.00000   0.00000   0.00000
 Alpha  occ. eigenvalues --    0.00000   0.00000   0.00000   0.00000   0.00000
 Alpha  occ. eigenvalues --    0.00000   0.00000   0.00000   0.00001   0.00001
 Alpha  occ. eigenvalues --    0.00001   0.00001   0.00001   0.00001   0.00001
 Alpha  occ. eigenvalues --    0.00001   0.00001   0.00001   0.00001   0.00001
 Alpha  occ. eigenvalues --    0.00001   0.00001   0.00001   0.00001   0.00001
 Alpha  occ. eigenvalues --    0.00001   0.00001   0.00001   0.00001   0.00001
 Alpha  occ. eigenvalues --    0.00001   0.00001   0.00001   0.00001   0.00001
 Alpha  occ. eigenvalues --    0.00001   0.00002   0.00002   0.00002   0.00002
 Alpha  occ. eigenvalues --    0.00002   0.00002   0.00002   0.00012   0.00012
 Alpha  occ. eigenvalues --    0.00022   0.00022   0.00025   0.00030   0.00042
 Alpha  occ. eigenvalues --    0.00057   0.00083   0.00096   0.00105   0.00128
 Alpha  occ. eigenvalues --    0.00217   0.00279   0.00300   0.00376   0.00514
 Alpha  occ. eigenvalues --    0.00571   0.00665   0.00726   0.00843   0.01743
 Alpha  occ. eigenvalues --    0.05212   0.06826   0.07166   0.07464   0.28084
 Alpha  occ. eigenvalues --    0.39444
 Alpha virt. eigenvalues --    0.39444   0.28084   0.07464   0.07166   0.06826
 Alpha virt. eigenvalues --    0.05212   0.01743   0.00843   0.00726   0.00665
 Alpha virt. eigenvalues --    0.00571   0.00514   0.00376   0.00300   0.00279
 Alpha virt. eigenvalues --    0.00217   0.00128   0.00105   0.00096   0.00083
 Alpha virt. eigenvalues --    0.00057   0.00042   0.00030   0.00025   0.00022
 Alpha virt. eigenvalues --    0.00022   0.00012   0.00012   0.00002   0.00002
 Alpha virt. eigenvalues --    0.00002   0.00002   0.00002   0.00002   0.00002
 Alpha virt. eigenvalues --    0.00001   0.00001   0.00001   0.00001   0.00001
 Alpha virt. eigenvalues --    0.00001   0.00001   0.00001   0.00001   0.00001
 Alpha virt. eigenvalues --    0.00001   0.00001   0.00001   0.00001   0.00001
 Alpha virt. eigenvalues --    0.00001   0.00001   0.00001   0.00001   0.00001
 Alpha virt. eigenvalues --    0.00001   0.00001   0.00001   0.00001   0.00001
 Alpha virt. eigenvalues --    0.00001   0.00001   0.00001   0.00000   0.00000
 Alpha virt. eigenvalues --    0.00000   0.00000   0.00000   0.00000   0.00000
 Alpha virt. eigenvalues --    0.00000   0.00000   0.00000   0.00000   0.00000
 Alpha virt. eigenvalues --    0.00000   0.00000   0.00000   0.00000   0.00000
 Alpha virt. eigenvalues --    0.00000   0.00000   0.00000   0.00000   0.00000
 Alpha virt. eigenvalues --    0.00000   0.00000   0.00000   0.00000   0.00000
 Alpha virt. eigenvalues --    0.00000   0.00000   0.00000   0.00000   0.00000
 Alpha virt. eigenvalues --    0.00000   0.00000   0.00000   0.00000   0.00000
 Alpha virt. eigenvalues --    0.00000   0.00000   0.00000   0.00000   0.00000
 Alpha virt. eigenvalues --    0.00000   0.00000   0.00000   0.00000   0.00000
 Alpha virt. eigenvalues --    0.00000   0.00000   0.00000   0.00000   0.00000
 Alpha virt. eigenvalues --    0.00000   0.00000   0.00000   0.00000   0.00000
 Alpha virt. eigenvalues --    0.00000   0.00000   0.00000   0.00000   0.00000
 Alpha virt. eigenvalues --    0.00000   0.00000   0.00000   0.00000   0.00000
 Alpha virt. eigenvalues --    0.00000   0.00000   0.00000   0.00000   0.00000
 Alpha virt. eigenvalues --    0.00000   0.00000   0.00000   0.00000   0.00000
 Alpha virt. eigenvalues --    0.00000   0.00000   0.00000   0.00000   0.00000
 Alpha virt. eigenvalues --    0.00000   0.00000   0.00000   0.00000   0.00000
 Alpha virt. eigenvalues --    0.00000   0.00000   0.00000   0.00000   0.00000
 Alpha virt. eigenvalues --    0.00000   0.00000   0.00000   0.00000   0.00000
 Alpha virt. eigenvalues --    0.00000   0.00000   0.00000   0.00000   0.00000
 Alpha virt. eigenvalues --    0.00000   0.00000   0.00000   0.00000   0.00000
 Alpha virt. eigenvalues --    0.00000   0.00000   0.00000   0.00000   0.00000
 Alpha virt. eigenvalues --    0.00000   0.00000   0.00000   0.00000   0.00000
 Alpha virt. eigenvalues --    0.00000   0.00000   0.00000   0.00000   0.00000
 Alpha virt. eigenvalues --    0.00000   0.00000   0.00000   0.00000   0.00000
 Alpha virt. eigenvalues --    0.00000   0.00000   0.00000   0.00000   0.00000
 Alpha virt. eigenvalues --    0.00000   0.00000   0.00000   0.00000   0.00000
 Alpha virt. eigenvalues --    0.00000   0.00000   0.00000   0.00000   0.00000
 Alpha virt. eigenvalues --    0.00000   0.00000   0.00000   0.00000   0.00000
 Alpha virt. eigenvalues --    0.00000   0.00000   0.00000   0.00000   0.00000
 Alpha virt. eigenvalues --    0.00000   0.00000   0.00000   0.00000   0.00000
 Alpha virt. eigenvalues --    0.00000   0.00000   0.00000   0.00000   0.00000
 Alpha virt. eigenvalues --    0.00000   0.00000   0.00000   0.00000   0.00000
 Alpha virt. eigenvalues --    0.00000   0.00000   0.00000   0.00000   0.00000
 Alpha virt. eigenvalues --    0.00000   0.00000   0.00000   0.00000   0.00000
 Alpha virt. eigenvalues --    0.00000   0.00000   0.00000   0.00000   0.00000
 Alpha virt. eigenvalues --    0.00000   0.00000   0.00000   0.00000   0.00000
 Alpha virt. eigenvalues --    0.00000   0.00000   0.00000   0.00000   0.00000
 Alpha virt. eigenvalues --    0.00000   0.00000   0.00000   0.00000   0.00000
 Alpha virt. eigenvalues --    0.00000   0.00000   0.00000   0.00000   0.00000
 Alpha virt. eigenvalues --    0.00000   0.00000   0.00000   0.00000   0.00000
 Alpha virt. eigenvalues --    0.00000   0.00000   0.00000   0.00000   0.00000
 Alpha virt. eigenvalues --    0.00000   0.00000   0.00000   0.00000   0.00000
 Alpha virt. eigenvalues --    0.00000   0.00000   0.00000   0.00000   0.00000
 Alpha virt. eigenvalues --    0.00000   0.00000   0.00000   0.00000   0.00000
          Condensed to atoms (all electrons):
 Mulliken charges:
               1
     1  C    3.999990
     2  C    3.999975
     3  C    4.000032
     4  C    3.999964
     5  C    4.000030
     6  C    3.999974
     7  N    5.000052
     8  N    5.000004
     9  N    4.999914
    10  C    3.999961
    11  C    4.000003
    12  C    3.999999
    13  C    3.999961
    14  C    4.000001
    15  C    4.000001
    16  C    4.000013
    17  C    4.000046
    18  N    4.999963
    19  C    4.000000
    20  C    4.000039
    21  C    4.000047
    22  C    4.000018
    23  C    4.000040
    24  C    4.000006
    25  C    4.000007
    26  C    4.000046
    27  C    4.000029
    28  C    4.000005
    29  C    3.999989
    30  C    3.999963
    31  N    5.000022
    32  N    5.000062
    33  C    3.999976
    34  C    3.999983
    35  C    4.000008
    36  C    3.999971
    37  C    4.000024
    38  C    4.000009
    39  N    4.999922
    40  N    4.999962
    41  H    0.999997
    42  H    0.999997
    43  H    1.000002
    44  H    0.999996
    45  H    1.000006
    46  H    0.999999
    47  H    0.999998
    48  H    0.999997
    49  H    1.000003
    50  H    0.999997
    51  H    0.999990
    52  H    0.999992
    53  H    0.999993
    54  H    1.000006
    55  H    1.000009
    56  H    1.000007
    57  H    0.999999
    58  H    1.000004
    59  C    4.000622
    60  C    4.000115
    61  C    3.999885
    62  C    3.999952
    63  C    3.999643
    64  C    4.000544
    65  N    5.000033
    66  N    5.000165
    67  N    5.000243
    68  C    4.000435
    69  C    3.999612
    70  C    4.000216
    71  C    4.000156
    72  C    4.000038
    73  C    4.000199
    74  C    3.999190
    75  C    3.999097
    76  N    5.000433
    77  C    3.998613
    78  C    4.000007
    79  C    4.000980
    80  C    3.999942
    81  C    3.999696
    82  C    4.000214
    83  C    3.999736
    84  C    3.999832
    85  C    3.999925
    86  C    3.999938
    87  C    4.000966
    88  C    4.000534
    89  N    4.999532
    90  N    4.999750
    91  C    3.999582
    92  C    4.000004
    93  C    4.000046
    94  C    4.000118
    95  C    4.000101
    96  C    3.999739
    97  N    5.000168
    98  N    4.999941
    99  H    0.999900
   100  H    1.000153
   101  H    0.999971
   102  H    0.999970
   103  H    1.000068
   104  H    1.000029
   105  H    1.000034
   106  H    1.000028
   107  H    1.000081
   108  H    1.000035
   109  H    1.000031
   110  H    1.000031
   111  H    0.999928
   112  H    0.999973
   113  H    0.999967
   114  H    0.999980
   115  H    0.999941
   116  H    0.999968
   117  C    3.943218
   118  C    4.013844
   119  C    3.986166
   120  C    3.937496
   121  C    4.062468
   122  C    4.056710
   123  C    4.076830
   124  C    3.931719
   125  C    4.034430
   126  C    3.965641
   127  C    4.084896
   128  C    4.113296
   129  C    3.886771
   130  C    4.156180
   131  C    3.843755
   132  C    4.189938
   133  C    3.847016
   134  C    4.152975
   135  C    3.923120
   136  C    4.068248
   137  C    4.027438
   138  C    3.972586
   139  C    4.121268
   140  C    3.830237
   141  C    4.169698
   142  C    3.810016
   143  C    4.139131
   144  C    3.860784
   145  C    3.878119
   146  C    4.076548
   147  C    3.923575
   148  C    4.152999
   149  C    3.847089
   150  C    4.056623
   151  C    4.013507
   152  C    4.034887
   153  C    3.931997
   154  C    4.067768
   155  C    4.028826
   156  C    3.971190
   157  C    3.830097
   158  C    4.169930
   159  C    3.810103
   160  C    4.189970
   161  C    3.844148
   162  C    4.062997
   163  C    3.936737
   164  C    3.986555
   165  C    3.965304
   166  C    3.915152
   167  C    4.085094
   168  C    3.878463
   169  C    4.112969
   170  C    3.887399
   171  C    4.155882
   172  C    3.860742
   173  C    4.139303
   174  C    4.121886
   175  C    3.915126
   176  C    3.943100
 Sum of Mulliken charges = 612.00000
 Mulliken charges with hydrogens summed into heavy atoms:
               1
     1  C    3.999990
     2  C    4.999983
     3  C    5.000038
     4  C    4.999957
     5  C    4.000030
     6  C    3.999974
     7  N    5.000052
     8  N    5.000004
     9  N    4.999914
    10  C    3.999961
    11  C    4.000003
    12  C    4.999991
    13  C    4.999951
    14  C    4.999998
    15  C    5.000005
    16  C    4.000013
    17  C    4.000046
    18  N    5.999960
    19  C    4.000000
    20  C    5.000046
    21  C    4.000047
    22  C    5.000015
    23  C    4.000040
    24  C    4.000006
    25  C    5.000003
    26  C    5.000049
    27  C    5.000034
    28  C    5.000004
    29  C    3.999989
    30  C    3.999963
    31  N    6.000019
    32  N    5.000062
    33  C    3.999976
    34  C    4.999982
    35  C    5.000007
    36  C    4.999977
    37  C    4.000024
    38  C    4.000009
    39  N    4.999922
    40  N    4.999962
    59  C    4.000622
    60  C    5.000083
    61  C    4.999858
    62  C    4.999880
    63  C    3.999643
    64  C    4.000544
    65  N    5.000033
    66  N    5.000165
    67  N    5.000243
    68  C    4.000435
    69  C    3.999612
    70  C    5.000247
    71  C    5.000187
    72  C    5.000073
    73  C    5.000281
    74  C    3.999190
    75  C    3.999097
    76  N    6.000587
    77  C    3.998613
    78  C    4.999987
    79  C    4.000980
    80  C    4.999970
    81  C    3.999696
    82  C    4.000214
    83  C    4.999706
    84  C    4.999803
    85  C    4.999893
    86  C    4.999879
    87  C    4.000966
    88  C    4.000534
    89  N    5.999431
    90  N    4.999750
    91  C    3.999582
    92  C    5.000038
    93  C    5.000075
    94  C    5.000186
    95  C    4.000101
    96  C    3.999739
    97  N    5.000168
    98  N    4.999941
   117  C    3.943218
   118  C    4.013844
   119  C    3.986166
   120  C    3.937496
   121  C    4.062468
   122  C    4.056710
   123  C    4.076830
   124  C    3.931719
   125  C    4.034430
   126  C    3.965641
   127  C    4.084896
   128  C    4.113296
   129  C    3.886771
   130  C    4.156180
   131  C    3.843755
   132  C    4.189938
   133  C    3.847016
   134  C    4.152975
   135  C    3.923120
   136  C    4.068248
   137  C    4.027438
   138  C    3.972586
   139  C    4.121268
   140  C    3.830237
   141  C    4.169698
   142  C    3.810016
   143  C    4.139131
   144  C    3.860784
   145  C    3.878119
   146  C    4.076548
   147  C    3.923575
   148  C    4.152999
   149  C    3.847089
   150  C    4.056623
   151  C    4.013507
   152  C    4.034887
   153  C    3.931997
   154  C    4.067768
   155  C    4.028826
   156  C    3.971190
   157  C    3.830097
   158  C    4.169930
   159  C    3.810103
   160  C    4.189970
   161  C    3.844148
   162  C    4.062997
   163  C    3.936737
   164  C    3.986555
   165  C    3.965304
   166  C    3.915152
   167  C    4.085094
   168  C    3.878463
   169  C    4.112969
   170  C    3.887399
   171  C    4.155882
   172  C    3.860742
   173  C    4.139303
   174  C    4.121886
   175  C    3.915126
   176  C    3.943100
 Charge=              0.0000 electrons
 Dipole moment (field-independent basis, Debye):
    X=              0.0030    Y=             -0.0085    Z=             -0.0242  Tot=              0.0258
 N-N= 1.582318282447D+04 E-N= 3.137445091111D-04  KE= 1.143290596464D-05
 Leave Link  601 at Thu Jan 26 17:36:23 2023, MaxMem=   671088640 cpu:               0.2 elap:               0.2
 (Enter /software/gaussian/g16-c01/avx2/g16/l9999.exe)

 This type of calculation cannot be archived.


 One man practicing sportsmanship is far better than 50 preaching it.
 -- Knute K. Rockne
 Job cpu time:       0 days  0 hours  0 minutes  2.3 seconds.
 Elapsed time:       0 days  0 hours  0 minutes  3.5 seconds.
 File lengths (MBytes):  RWF=    272 Int=      0 D2E=      0 Chk=   1072 Scr=     32
 Normal termination of Gaussian 16 at Thu Jan 26 17:36:23 2023.
