 Entering Gaussian System, Link 0=g16
 Initial command:
 /software/gaussian/g16-c01/avx2/g16/l1.exe "/gpfs/fs2/scratch/bweight/software/many_molecule_many_mode_NAMD/EXAMPLES/Mccamant_Planarization/O_Th/GS_OPT/Gau-8480.inp" -scrdir="/gpfs/fs2/scratch/bweight/software/many_molecule_many_mode_NAMD/EXAMPLES/Mccamant_Planarization/O_Th/GS_OPT/"
 Entering Link 1 = /software/gaussian/g16-c01/avx2/g16/l1.exe PID=      8481.
  
 Copyright (c) 1988-2019, Gaussian, Inc.  All Rights Reserved.
  
 This is part of the Gaussian(R) 16 program.  It is based on
 the Gaussian(R) 09 system (copyright 2009, Gaussian, Inc.),
 the Gaussian(R) 03 system (copyright 2003, Gaussian, Inc.),
 the Gaussian(R) 98 system (copyright 1998, Gaussian, Inc.),
 the Gaussian(R) 94 system (copyright 1995, Gaussian, Inc.),
 the Gaussian 92(TM) system (copyright 1992, Gaussian, Inc.),
 the Gaussian 90(TM) system (copyright 1990, Gaussian, Inc.),
 the Gaussian 88(TM) system (copyright 1988, Gaussian, Inc.),
 the Gaussian 86(TM) system (copyright 1986, Carnegie Mellon
 University), and the Gaussian 82(TM) system (copyright 1983,
 Carnegie Mellon University). Gaussian is a federally registered
 trademark of Gaussian, Inc.
  
 This software contains proprietary and confidential information,
 including trade secrets, belonging to Gaussian, Inc.
  
 This software is provided under written license and may be
 used, copied, transmitted, or stored only in accord with that
 written license.
  
 The following legend is applicable only to US Government
 contracts under FAR:
  
                    RESTRICTED RIGHTS LEGEND
  
 Use, reproduction and disclosure by the US Government is
 subject to restrictions as set forth in subparagraphs (a)
 and (c) of the Commercial Computer Software - Restricted
 Rights clause in FAR 52.227-19.
  
 Gaussian, Inc.
 340 Quinnipiac St., Bldg. 40, Wallingford CT 06492
  
  
 ---------------------------------------------------------------
 Warning -- This program may not be used in any manner that
 competes with the business of Gaussian, Inc. or will provide
 assistance to any competitor of Gaussian, Inc.  The licensee
 of this program is prohibited from giving any competitor of
 Gaussian, Inc. access to this program.  By using this program,
 the user acknowledges that Gaussian, Inc. is engaged in the
 business of creating and licensing software in the field of
 computational chemistry and represents and warrants to the
 licensee that it is not a competitor of Gaussian, Inc. and that
 it will not use this program in any manner prohibited above.
 ---------------------------------------------------------------
  

 Cite this work as:
 Gaussian 16, Revision C.01,
 M. J. Frisch, G. W. Trucks, H. B. Schlegel, G. E. Scuseria, 
 M. A. Robb, J. R. Cheeseman, G. Scalmani, V. Barone, 
 G. A. Petersson, H. Nakatsuji, X. Li, M. Caricato, A. V. Marenich, 
 J. Bloino, B. G. Janesko, R. Gomperts, B. Mennucci, H. P. Hratchian, 
 J. V. Ortiz, A. F. Izmaylov, J. L. Sonnenberg, D. Williams-Young, 
 F. Ding, F. Lipparini, F. Egidi, J. Goings, B. Peng, A. Petrone, 
 T. Henderson, D. Ranasinghe, V. G. Zakrzewski, J. Gao, N. Rega, 
 G. Zheng, W. Liang, M. Hada, M. Ehara, K. Toyota, R. Fukuda, 
 J. Hasegawa, M. Ishida, T. Nakajima, Y. Honda, O. Kitao, H. Nakai, 
 T. Vreven, K. Throssell, J. A. Montgomery, Jr., J. E. Peralta, 
 F. Ogliaro, M. J. Bearpark, J. J. Heyd, E. N. Brothers, K. N. Kudin, 
 V. N. Staroverov, T. A. Keith, R. Kobayashi, J. Normand, 
 K. Raghavachari, A. P. Rendell, J. C. Burant, S. S. Iyengar, 
 J. Tomasi, M. Cossi, J. M. Millam, M. Klene, C. Adamo, R. Cammi, 
 J. W. Ochterski, R. L. Martin, K. Morokuma, O. Farkas, 
 J. B. Foresman, and D. J. Fox, Gaussian, Inc., Wallingford CT, 2019.
 
 ******************************************
 Gaussian 16:  ES64L-G16RevC.01  3-Jul-2019
                 5-Jan-2023 
 ******************************************
 %chk=geometry.chk
 %nprocshared=4
 Will use up to    4 processors via shared memory.
 %mem=5GB
 ------------------
 # OPT B3LYP/6-31G*
 ------------------
 1/18=20,19=15,26=3,38=1/1,3;
 2/9=110,12=2,17=6,18=5,40=1/2;
 3/5=1,6=6,7=1,11=2,25=1,30=1,71=1,74=-5/1,2,3;
 4//1;
 5/5=2,38=5/2;
 6/7=2,8=2,9=2,10=2,28=1/1;
 7//1,2,3,16;
 1/18=20,19=15,26=3/3(2);
 2/9=110/2;
 99//99;
 2/9=110/2;
 3/5=1,6=6,7=1,11=2,25=1,30=1,71=1,74=-5/1,2,3;
 4/5=5,16=3,69=1/1;
 5/5=2,38=5/2;
 7//1,2,3,16;
 1/18=20,19=15,26=3/3(-5);
 2/9=110/2;
 6/7=2,8=2,9=2,10=2,19=2,28=1/1;
 99/9=1/99;
 -------------------
 Title Card Required
 -------------------
 Symbolic Z-matrix:
 Charge =  0 Multiplicity = 1
 C                    -0.71093  -0.03525   0. 
 C                     0.65369  -0.03525   0. 
 C                     1.38659   1.19597   0. 
 C                     0.66259   2.42772  -0.00552 
 C                    -0.76965   2.38622  -0.00682 
 C                    -1.43343   1.19393  -0.00345 
 C                     2.76191   3.66177  -0.00161 
 C                     3.48588   2.43006   0.00581 
 C                     4.91806   2.47169   0.01292 
 H                     5.46393   1.51616   0.01952 
 C                     5.58179   3.66404   0.01396 
 C                     4.85931   4.89316   0.00579 
 C                     3.49467   4.89301  -0.00158 
 H                    -1.2768   -0.97853   0.0024 
 H                     1.22302  -0.97699   0.00311 
 H                    -1.31546   3.34177  -0.01142 
 H                     6.6812    3.69995   0.02012 
 H                     2.92513   5.83463  -0.00785 
 N                     5.61579   6.15357   0.00725 
 N                    -2.90264   1.1456   -0.00536 
 P                     4.88207   9.43561   0.19051 
 C                     2.78549   1.21886   0.0049 
 C                     3.56588  -0.10876   0.00935 
 C                     3.96892  -0.79983   1.13039 
 S                     4.02938  -0.89065  -1.3942 
 C                     4.67319  -1.99777   0.78415 
 H                     3.78572  -0.49265   2.16161 
 C                     4.76781  -2.1516   -0.58115 
 H                     5.07627  -2.68846   1.52701 
 H                     5.25513  -2.97809  -1.09458 
 O                     1.36297   3.63888  -0.00724 
 C                     6.4664    6.21591  -1.19003 
 H                     6.80929   7.21948  -1.33208 
 H                     7.30719   5.56615  -1.06443 
 H                     5.90188   5.90749  -2.04507 
 C                     6.45782   6.21828   1.21046 
 H                     7.2649    5.52178   1.11885 
 H                     6.85094   7.20763   1.31788 
 H                     5.8705    5.97254   2.07044 
 C                    -3.36792   0.43353  -1.20426 
 H                    -3.20749  -0.61703  -1.07987 
 H                    -4.41168   0.62045  -1.34752 
 H                    -2.82326   0.77888  -2.05807 
 C                    -3.37127   0.44028   1.19622 
 H                    -2.87476   0.83504   2.05793 
 H                    -4.42759   0.57557   1.30001 
 H                    -3.15255  -0.60318   1.10536 
 F                     4.18056   7.96431   0.19828 
 F                     3.41081   10.13699   0.17125 
 F                     5.58357   10.90692   0.18273 
 F                     6.35332   8.73423   0.20976 
 F                     4.86803   9.45092   1.82037 
 F                     4.8961    9.4203   -1.43936 
 
 Add virtual bond connecting atoms F51        and H38        Dist= 3.69D+00.

 GradGradGradGradGradGradGradGradGradGradGradGradGradGradGradGradGradGrad
 Berny optimization.
 Initialization pass.
                           ----------------------------
                           !    Initial Parameters    !
                           ! (Angstroms and Degrees)  !
 --------------------------                            --------------------------
 ! Name  Definition              Value          Derivative Info.                !
 --------------------------------------------------------------------------------
 ! R1    R(1,2)                  1.3646         estimate D2E/DX2                !
 ! R2    R(1,6)                  1.4258         estimate D2E/DX2                !
 ! R3    R(1,14)                 1.1            estimate D2E/DX2                !
 ! R4    R(2,3)                  1.4328         estimate D2E/DX2                !
 ! R5    R(2,15)                 1.1005         estimate D2E/DX2                !
 ! R6    R(3,4)                  1.4288         estimate D2E/DX2                !
 ! R7    R(3,22)                 1.3991         estimate D2E/DX2                !
 ! R8    R(4,5)                  1.4328         estimate D2E/DX2                !
 ! R9    R(4,31)                 1.3991         estimate D2E/DX2                !
 ! R10   R(5,6)                  1.3646         estimate D2E/DX2                !
 ! R11   R(5,16)                 1.1005         estimate D2E/DX2                !
 ! R12   R(6,20)                 1.47           estimate D2E/DX2                !
 ! R13   R(7,8)                  1.4287         estimate D2E/DX2                !
 ! R14   R(7,13)                 1.4328         estimate D2E/DX2                !
 ! R15   R(7,31)                 1.3991         estimate D2E/DX2                !
 ! R16   R(8,9)                  1.4328         estimate D2E/DX2                !
 ! R17   R(8,22)                 1.3991         estimate D2E/DX2                !
 ! R18   R(9,10)                 1.1005         estimate D2E/DX2                !
 ! R19   R(9,11)                 1.3646         estimate D2E/DX2                !
 ! R20   R(11,12)                1.4258         estimate D2E/DX2                !
 ! R21   R(11,17)                1.1            estimate D2E/DX2                !
 ! R22   R(12,13)                1.3647         estimate D2E/DX2                !
 ! R23   R(12,19)                1.47           estimate D2E/DX2                !
 ! R24   R(13,18)                1.1005         estimate D2E/DX2                !
 ! R25   R(19,32)                1.47           estimate D2E/DX2                !
 ! R26   R(19,36)                1.47           estimate D2E/DX2                !
 ! R27   R(20,40)                1.47           estimate D2E/DX2                !
 ! R28   R(20,44)                1.47           estimate D2E/DX2                !
 ! R29   R(21,48)                1.63           estimate D2E/DX2                !
 ! R30   R(21,49)                1.63           estimate D2E/DX2                !
 ! R31   R(21,50)                1.63           estimate D2E/DX2                !
 ! R32   R(21,51)                1.63           estimate D2E/DX2                !
 ! R33   R(21,52)                1.63           estimate D2E/DX2                !
 ! R34   R(21,53)                1.63           estimate D2E/DX2                !
 ! R35   R(22,23)                1.54           estimate D2E/DX2                !
 ! R36   R(23,24)                1.3772         estimate D2E/DX2                !
 ! R37   R(23,25)                1.6722         estimate D2E/DX2                !
 ! R38   R(24,26)                1.4321         estimate D2E/DX2                !
 ! R39   R(24,27)                1.0915         estimate D2E/DX2                !
 ! R40   R(25,28)                1.6722         estimate D2E/DX2                !
 ! R41   R(26,28)                1.3772         estimate D2E/DX2                !
 ! R42   R(26,29)                1.0915         estimate D2E/DX2                !
 ! R43   R(28,30)                1.0882         estimate D2E/DX2                !
 ! R44   R(32,33)                1.07           estimate D2E/DX2                !
 ! R45   R(32,34)                1.07           estimate D2E/DX2                !
 ! R46   R(32,35)                1.07           estimate D2E/DX2                !
 ! R47   R(36,37)                1.07           estimate D2E/DX2                !
 ! R48   R(36,38)                1.07           estimate D2E/DX2                !
 ! R49   R(36,39)                1.07           estimate D2E/DX2                !
 ! R50   R(38,51)                1.9509         estimate D2E/DX2                !
 ! R51   R(40,41)                1.07           estimate D2E/DX2                !
 ! R52   R(40,42)                1.07           estimate D2E/DX2                !
 ! R53   R(40,43)                1.07           estimate D2E/DX2                !
 ! R54   R(44,45)                1.07           estimate D2E/DX2                !
 ! R55   R(44,46)                1.07           estimate D2E/DX2                !
 ! R56   R(44,47)                1.07           estimate D2E/DX2                !
 ! A1    A(2,1,6)              120.4466         estimate D2E/DX2                !
 ! A2    A(2,1,14)             120.9594         estimate D2E/DX2                !
 ! A3    A(6,1,14)             118.5939         estimate D2E/DX2                !
 ! A4    A(1,2,3)              120.7635         estimate D2E/DX2                !
 ! A5    A(1,2,15)             121.155          estimate D2E/DX2                !
 ! A6    A(3,2,15)             118.0813         estimate D2E/DX2                !
 ! A7    A(2,3,4)              118.7901         estimate D2E/DX2                !
 ! A8    A(2,3,22)             121.7006         estimate D2E/DX2                !
 ! A9    A(4,3,22)             119.5092         estimate D2E/DX2                !
 ! A10   A(3,4,5)              118.7868         estimate D2E/DX2                !
 ! A11   A(3,4,31)             119.5145         estimate D2E/DX2                !
 ! A12   A(5,4,31)             121.6986         estimate D2E/DX2                !
 ! A13   A(4,5,6)              120.765          estimate D2E/DX2                !
 ! A14   A(4,5,16)             118.0759         estimate D2E/DX2                !
 ! A15   A(6,5,16)             121.1591         estimate D2E/DX2                !
 ! A16   A(1,6,5)              120.4476         estimate D2E/DX2                !
 ! A17   A(1,6,20)             118.5627         estimate D2E/DX2                !
 ! A18   A(5,6,20)             120.9896         estimate D2E/DX2                !
 ! A19   A(8,7,13)             118.7949         estimate D2E/DX2                !
 ! A20   A(8,7,31)             119.5096         estimate D2E/DX2                !
 ! A21   A(13,7,31)            121.6954         estimate D2E/DX2                !
 ! A22   A(7,8,9)              118.7822         estimate D2E/DX2                !
 ! A23   A(7,8,22)             119.5142         estimate D2E/DX2                !
 ! A24   A(9,8,22)             121.7035         estimate D2E/DX2                !
 ! A25   A(8,9,10)             118.0746         estimate D2E/DX2                !
 ! A26   A(8,9,11)             120.7675         estimate D2E/DX2                !
 ! A27   A(10,9,11)            121.1578         estimate D2E/DX2                !
 ! A28   A(9,11,12)            120.4489         estimate D2E/DX2                !
 ! A29   A(9,11,17)            120.9732         estimate D2E/DX2                !
 ! A30   A(12,11,17)           118.5779         estimate D2E/DX2                !
 ! A31   A(11,12,13)           120.4423         estimate D2E/DX2                !
 ! A32   A(11,12,19)           118.5802         estimate D2E/DX2                !
 ! A33   A(13,12,19)           120.9774         estimate D2E/DX2                !
 ! A34   A(7,13,12)            120.7641         estimate D2E/DX2                !
 ! A35   A(7,13,18)            118.0731         estimate D2E/DX2                !
 ! A36   A(12,13,18)           121.1628         estimate D2E/DX2                !
 ! A37   A(12,19,32)           109.4712         estimate D2E/DX2                !
 ! A38   A(12,19,36)           109.4712         estimate D2E/DX2                !
 ! A39   A(32,19,36)           109.4713         estimate D2E/DX2                !
 ! A40   A(6,20,40)            109.4712         estimate D2E/DX2                !
 ! A41   A(6,20,44)            109.4712         estimate D2E/DX2                !
 ! A42   A(40,20,44)           109.4713         estimate D2E/DX2                !
 ! A43   A(48,21,49)            90.0            estimate D2E/DX2                !
 ! A44   A(48,21,51)            90.0            estimate D2E/DX2                !
 ! A45   A(48,21,52)            90.0            estimate D2E/DX2                !
 ! A46   A(48,21,53)            90.0            estimate D2E/DX2                !
 ! A47   A(49,21,50)            90.0            estimate D2E/DX2                !
 ! A48   A(49,21,52)            90.0            estimate D2E/DX2                !
 ! A49   A(49,21,53)            90.0            estimate D2E/DX2                !
 ! A50   A(50,21,51)            90.0            estimate D2E/DX2                !
 ! A51   A(50,21,52)            90.0            estimate D2E/DX2                !
 ! A52   A(50,21,53)            90.0            estimate D2E/DX2                !
 ! A53   A(51,21,52)            90.0            estimate D2E/DX2                !
 ! A54   A(51,21,53)            90.0            estimate D2E/DX2                !
 ! A55   A(3,22,8)             120.9763         estimate D2E/DX2                !
 ! A56   A(3,22,23)            119.5106         estimate D2E/DX2                !
 ! A57   A(8,22,23)            119.5131         estimate D2E/DX2                !
 ! A58   A(22,23,24)           125.6782         estimate D2E/DX2                !
 ! A59   A(22,23,25)           122.7613         estimate D2E/DX2                !
 ! A60   A(24,23,25)           111.5605         estimate D2E/DX2                !
 ! A61   A(23,24,26)           111.5216         estimate D2E/DX2                !
 ! A62   A(23,24,27)           125.3597         estimate D2E/DX2                !
 ! A63   A(26,24,27)           123.1187         estimate D2E/DX2                !
 ! A64   A(23,25,28)            93.835          estimate D2E/DX2                !
 ! A65   A(24,26,28)           111.5245         estimate D2E/DX2                !
 ! A66   A(24,26,29)           123.1189         estimate D2E/DX2                !
 ! A67   A(28,26,29)           125.3567         estimate D2E/DX2                !
 ! A68   A(25,28,26)           111.5584         estimate D2E/DX2                !
 ! A69   A(25,28,30)           122.7558         estimate D2E/DX2                !
 ! A70   A(26,28,30)           125.6858         estimate D2E/DX2                !
 ! A71   A(4,31,7)             120.9759         estimate D2E/DX2                !
 ! A72   A(19,32,33)           109.4712         estimate D2E/DX2                !
 ! A73   A(19,32,34)           109.4712         estimate D2E/DX2                !
 ! A74   A(19,32,35)           109.4712         estimate D2E/DX2                !
 ! A75   A(33,32,34)           109.4713         estimate D2E/DX2                !
 ! A76   A(33,32,35)           109.4712         estimate D2E/DX2                !
 ! A77   A(34,32,35)           109.4712         estimate D2E/DX2                !
 ! A78   A(19,36,37)           109.4712         estimate D2E/DX2                !
 ! A79   A(19,36,38)           109.4712         estimate D2E/DX2                !
 ! A80   A(19,36,39)           109.4712         estimate D2E/DX2                !
 ! A81   A(37,36,38)           109.4713         estimate D2E/DX2                !
 ! A82   A(37,36,39)           109.4712         estimate D2E/DX2                !
 ! A83   A(38,36,39)           109.4712         estimate D2E/DX2                !
 ! A84   A(36,38,51)           124.9447         estimate D2E/DX2                !
 ! A85   A(20,40,41)           109.4712         estimate D2E/DX2                !
 ! A86   A(20,40,42)           109.4712         estimate D2E/DX2                !
 ! A87   A(20,40,43)           109.4712         estimate D2E/DX2                !
 ! A88   A(41,40,42)           109.4713         estimate D2E/DX2                !
 ! A89   A(41,40,43)           109.4712         estimate D2E/DX2                !
 ! A90   A(42,40,43)           109.4712         estimate D2E/DX2                !
 ! A91   A(20,44,45)           109.4712         estimate D2E/DX2                !
 ! A92   A(20,44,46)           109.4712         estimate D2E/DX2                !
 ! A93   A(20,44,47)           109.4712         estimate D2E/DX2                !
 ! A94   A(45,44,46)           109.4713         estimate D2E/DX2                !
 ! A95   A(45,44,47)           109.4712         estimate D2E/DX2                !
 ! A96   A(46,44,47)           109.4712         estimate D2E/DX2                !
 ! A97   A(21,51,38)           125.005          estimate D2E/DX2                !
 ! A98   L(48,21,50,49,-1)     180.0            estimate D2E/DX2                !
 ! A99   L(49,21,51,48,-1)     180.0            estimate D2E/DX2                !
 ! A100  L(52,21,53,48,-1)     180.0            estimate D2E/DX2                !
 ! A101  L(48,21,50,49,-2)     180.0            estimate D2E/DX2                !
 ! A102  L(49,21,51,48,-2)     180.0            estimate D2E/DX2                !
 ! A103  L(52,21,53,48,-2)     180.0            estimate D2E/DX2                !
 ! D1    D(6,1,2,3)              0.1607         estimate D2E/DX2                !
 ! D2    D(6,1,2,15)           179.9717         estimate D2E/DX2                !
 ! D3    D(14,1,2,3)          -179.854          estimate D2E/DX2                !
 ! D4    D(14,1,2,15)           -0.0429         estimate D2E/DX2                !
 ! D5    D(2,1,6,5)              0.0013         estimate D2E/DX2                !
 ! D6    D(2,1,6,20)           179.9091         estimate D2E/DX2                !
 ! D7    D(14,1,6,5)          -179.9844         estimate D2E/DX2                !
 ! D8    D(14,1,6,20)           -0.0766         estimate D2E/DX2                !
 ! D9    D(1,2,3,4)             -0.2525         estimate D2E/DX2                !
 ! D10   D(1,2,3,22)           179.7643         estimate D2E/DX2                !
 ! D11   D(15,2,3,4)           179.9308         estimate D2E/DX2                !
 ! D12   D(15,2,3,22)           -0.0524         estimate D2E/DX2                !
 ! D13   D(2,3,4,5)              0.1839         estimate D2E/DX2                !
 ! D14   D(2,3,4,31)          -179.9227         estimate D2E/DX2                !
 ! D15   D(22,3,4,5)          -179.8326         estimate D2E/DX2                !
 ! D16   D(22,3,4,31)            0.0609         estimate D2E/DX2                !
 ! D17   D(2,3,22,8)          -179.9531         estimate D2E/DX2                !
 ! D18   D(2,3,22,23)            0.0469         estimate D2E/DX2                !
 ! D19   D(4,3,22,8)             0.0639         estimate D2E/DX2                !
 ! D20   D(4,3,22,23)         -179.9361         estimate D2E/DX2                !
 ! D21   D(3,4,5,6)             -0.0283         estimate D2E/DX2                !
 ! D22   D(3,4,5,16)          -179.98           estimate D2E/DX2                !
 ! D23   D(31,4,5,6)          -179.9193         estimate D2E/DX2                !
 ! D24   D(31,4,5,16)            0.129          estimate D2E/DX2                !
 ! D25   D(3,4,31,7)            -0.0966         estimate D2E/DX2                !
 ! D26   D(5,4,31,7)           179.7937         estimate D2E/DX2                !
 ! D27   D(4,5,6,1)             -0.0673         estimate D2E/DX2                !
 ! D28   D(4,5,6,20)          -179.9728         estimate D2E/DX2                !
 ! D29   D(16,5,6,1)           179.8829         estimate D2E/DX2                !
 ! D30   D(16,5,6,20)           -0.0226         estimate D2E/DX2                !
 ! D31   D(1,6,20,40)          -59.9537         estimate D2E/DX2                !
 ! D32   D(1,6,20,44)           60.0463         estimate D2E/DX2                !
 ! D33   D(5,6,20,40)          119.9536         estimate D2E/DX2                !
 ! D34   D(5,6,20,44)         -120.0464         estimate D2E/DX2                !
 ! D35   D(13,7,8,9)            -0.0041         estimate D2E/DX2                !
 ! D36   D(13,7,8,22)         -179.9538         estimate D2E/DX2                !
 ! D37   D(31,7,8,9)          -179.9353         estimate D2E/DX2                !
 ! D38   D(31,7,8,22)            0.115          estimate D2E/DX2                !
 ! D39   D(8,7,13,12)           -0.0189         estimate D2E/DX2                !
 ! D40   D(8,7,13,18)          179.9695         estimate D2E/DX2                !
 ! D41   D(31,7,13,12)         179.9107         estimate D2E/DX2                !
 ! D42   D(31,7,13,18)          -0.1009         estimate D2E/DX2                !
 ! D43   D(8,7,31,4)             0.0089         estimate D2E/DX2                !
 ! D44   D(13,7,31,4)         -179.9202         estimate D2E/DX2                !
 ! D45   D(7,8,9,10)           179.9455         estimate D2E/DX2                !
 ! D46   D(7,8,9,11)             0.065          estimate D2E/DX2                !
 ! D47   D(22,8,9,10)           -0.106          estimate D2E/DX2                !
 ! D48   D(22,8,9,11)         -179.9865         estimate D2E/DX2                !
 ! D49   D(7,8,22,3)            -0.1515         estimate D2E/DX2                !
 ! D50   D(7,8,22,23)          179.8485         estimate D2E/DX2                !
 ! D51   D(9,8,22,3)           179.9003         estimate D2E/DX2                !
 ! D52   D(9,8,22,23)           -0.0997         estimate D2E/DX2                !
 ! D53   D(8,9,11,12)           -0.1018         estimate D2E/DX2                !
 ! D54   D(8,9,11,17)          179.9569         estimate D2E/DX2                !
 ! D55   D(10,9,11,12)        -179.9786         estimate D2E/DX2                !
 ! D56   D(10,9,11,17)           0.0801         estimate D2E/DX2                !
 ! D57   D(9,11,12,13)           0.078          estimate D2E/DX2                !
 ! D58   D(9,11,12,19)         179.9999         estimate D2E/DX2                !
 ! D59   D(17,11,12,13)       -179.9793         estimate D2E/DX2                !
 ! D60   D(17,11,12,19)         -0.0574         estimate D2E/DX2                !
 ! D61   D(11,12,13,7)          -0.0166         estimate D2E/DX2                !
 ! D62   D(11,12,13,18)        179.9954         estimate D2E/DX2                !
 ! D63   D(19,12,13,7)        -179.9366         estimate D2E/DX2                !
 ! D64   D(19,12,13,18)          0.0754         estimate D2E/DX2                !
 ! D65   D(11,12,19,32)         60.2002         estimate D2E/DX2                !
 ! D66   D(11,12,19,36)        -59.7998         estimate D2E/DX2                !
 ! D67   D(13,12,19,32)       -119.8783         estimate D2E/DX2                !
 ! D68   D(13,12,19,36)        120.1217         estimate D2E/DX2                !
 ! D69   D(12,19,32,33)        164.8155         estimate D2E/DX2                !
 ! D70   D(12,19,32,34)        -75.1845         estimate D2E/DX2                !
 ! D71   D(12,19,32,35)         44.8155         estimate D2E/DX2                !
 ! D72   D(36,19,32,33)        -75.1845         estimate D2E/DX2                !
 ! D73   D(36,19,32,34)         44.8155         estimate D2E/DX2                !
 ! D74   D(36,19,32,35)        164.8155         estimate D2E/DX2                !
 ! D75   D(12,19,36,37)         71.5605         estimate D2E/DX2                !
 ! D76   D(12,19,36,38)       -168.4394         estimate D2E/DX2                !
 ! D77   D(12,19,36,39)        -48.4394         estimate D2E/DX2                !
 ! D78   D(32,19,36,37)        -48.4394         estimate D2E/DX2                !
 ! D79   D(32,19,36,38)         71.5606         estimate D2E/DX2                !
 ! D80   D(32,19,36,39)       -168.4394         estimate D2E/DX2                !
 ! D81   D(6,20,40,41)          75.0821         estimate D2E/DX2                !
 ! D82   D(6,20,40,42)        -164.9179         estimate D2E/DX2                !
 ! D83   D(6,20,40,43)         -44.9179         estimate D2E/DX2                !
 ! D84   D(44,20,40,41)        -44.9179         estimate D2E/DX2                !
 ! D85   D(44,20,40,42)         75.0821         estimate D2E/DX2                !
 ! D86   D(44,20,40,43)       -164.9179         estimate D2E/DX2                !
 ! D87   D(6,20,44,45)          48.5804         estimate D2E/DX2                !
 ! D88   D(6,20,44,46)         168.5804         estimate D2E/DX2                !
 ! D89   D(6,20,44,47)         -71.4196         estimate D2E/DX2                !
 ! D90   D(40,20,44,45)        168.5804         estimate D2E/DX2                !
 ! D91   D(40,20,44,46)        -71.4196         estimate D2E/DX2                !
 ! D92   D(40,20,44,47)         48.5804         estimate D2E/DX2                !
 ! D93   D(48,21,51,38)        -42.9791         estimate D2E/DX2                !
 ! D94   D(50,21,51,38)        137.0209         estimate D2E/DX2                !
 ! D95   D(52,21,51,38)         47.0209         estimate D2E/DX2                !
 ! D96   D(53,21,51,38)       -132.9791         estimate D2E/DX2                !
 ! D97   D(3,22,23,24)         -89.996          estimate D2E/DX2                !
 ! D98   D(3,22,23,25)          90.0            estimate D2E/DX2                !
 ! D99   D(8,22,23,24)          90.004          estimate D2E/DX2                !
 ! D100  D(8,22,23,25)         -90.0            estimate D2E/DX2                !
 ! D101  D(22,23,24,26)        179.9669         estimate D2E/DX2                !
 ! D102  D(22,23,24,27)         -0.0168         estimate D2E/DX2                !
 ! D103  D(25,23,24,26)         -0.0295         estimate D2E/DX2                !
 ! D104  D(25,23,24,27)        179.9868         estimate D2E/DX2                !
 ! D105  D(22,23,25,28)       -179.9841         estimate D2E/DX2                !
 ! D106  D(24,23,25,28)          0.0124         estimate D2E/DX2                !
 ! D107  D(23,24,26,28)          0.0362         estimate D2E/DX2                !
 ! D108  D(23,24,26,29)       -179.9641         estimate D2E/DX2                !
 ! D109  D(27,24,26,28)       -179.9797         estimate D2E/DX2                !
 ! D110  D(27,24,26,29)          0.0199         estimate D2E/DX2                !
 ! D111  D(23,25,28,26)          0.0088         estimate D2E/DX2                !
 ! D112  D(23,25,28,30)       -179.9872         estimate D2E/DX2                !
 ! D113  D(24,26,28,25)         -0.0269         estimate D2E/DX2                !
 ! D114  D(24,26,28,30)        179.969          estimate D2E/DX2                !
 ! D115  D(29,26,28,25)        179.9735         estimate D2E/DX2                !
 ! D116  D(29,26,28,30)         -0.0306         estimate D2E/DX2                !
 ! D117  D(19,36,38,51)          6.7318         estimate D2E/DX2                !
 ! D118  D(37,36,38,51)        126.7318         estimate D2E/DX2                !
 ! D119  D(39,36,38,51)       -113.2682         estimate D2E/DX2                !
 ! D120  D(36,38,51,21)         66.8901         estimate D2E/DX2                !
 --------------------------------------------------------------------------------
 Trust Radius=3.00D-01 FncErr=1.00D-07 GrdErr=1.00D-06 EigMax=2.50D+02 EigMin=1.00D-04
 Number of steps in this run=    289 maximum allowed number of steps=    318.
 GradGradGradGradGradGradGradGradGradGradGradGradGradGradGradGradGradGrad

 Stoichiometry    C21H21F6N2OPS
 Framework group  C1[X(C21H21F6N2OPS)]
 Deg. of freedom   153
 Full point group                 C1      NOp   1
 Largest Abelian subgroup         C1      NOp   1
 Largest concise Abelian subgroup C1      NOp   1
                         Standard orientation:                         
 ---------------------------------------------------------------------
 Center     Atomic      Atomic             Coordinates (Angstroms)
 Number     Number       Type             X           Y           Z
 ---------------------------------------------------------------------
      1          6           0        5.263307   -1.510126    0.068208
      2          6           0        4.625117   -0.304329    0.099249
      3          6           0        3.194538   -0.231197    0.065613
      4          6           0        2.444976   -1.445417   -0.006696
      5          6           0        3.151481   -2.691551   -0.038878
      6          6           0        4.515259   -2.721914   -0.001894
      7          6           0        0.372763   -0.166368   -0.005465
      8          6           0        1.122252    1.047732    0.068741
      9          6           0        0.415508    2.293525    0.106721
     10          1           0        1.004297    3.221430    0.164774
     11          6           0       -0.948416    2.323645    0.074141
     12          6           0       -1.696294    1.112095   -0.000677
     13          6           0       -1.057778   -0.093363   -0.039072
     14          1           0        6.361307   -1.570120    0.096279
     15          1           0        5.190839    0.638003    0.153781
     16          1           0        2.562597   -3.619492   -0.094936
     17          1           0       -1.494452    3.278099    0.103835
     18          1           0       -1.623214   -1.035708   -0.096766
     19          7           0       -3.163732    1.192393   -0.033508
     20          7           0        5.245109   -3.997495   -0.035250
     21         15           0       -5.725069   -0.994443   -0.001243
     22          6           0        2.519969    0.994016    0.101389
     23          6           0        3.327888    2.302842    0.177835
     24          6           0        3.721408    2.937454    1.335056
     25         16           0        3.837731    3.132233   -1.181693
     26          6           0        4.459296    4.132269    1.054161
     27          1           0        3.509395    2.591825    2.348429
     28          6           0        4.585759    4.341173   -0.301209
     29          1           0        4.862097    4.781563    1.833598
     30          1           0        5.101180    5.177530   -0.769222
     31          8           0        1.047365   -1.391590   -0.041971
     32          6           0       -3.586101    1.961856   -1.212673
     33          1           0       -4.629527    1.802158   -1.387771
     34          1           0       -3.408422    3.003029   -1.041536
     35          1           0       -3.027793    1.640465   -2.067015
     36          6           0       -3.645366    1.859048    1.184893
     37          1           0       -3.405096    2.900765    1.140208
     38          1           0       -4.706083    1.740602    1.260717
     39          1           0       -3.175496    1.421030    2.040616
     40          6           0        6.122405   -4.029383   -1.214332
     41          1           0        6.972422   -3.402336   -1.043503
     42          1           0        6.449044   -5.033257   -1.388814
     43          1           0        5.584324   -3.675767   -2.068922
     44          6           0        6.056823   -4.129600    1.183179
     45          1           0        5.453867   -3.908856    2.039109
     46          1           0        6.428652   -5.130175    1.257290
     47          1           0        6.878789   -3.445927    1.140021
     48          9           0       -4.097247   -0.928129    0.050686
     49          9           0       -5.656212   -2.620955   -0.082603
     50          9           0       -7.352891   -1.060758   -0.053171
     51          9           0       -5.793926    0.632068    0.080118
     52          9           0       -5.773576   -1.077889    1.625897
     53          9           0       -5.676562   -0.910998   -1.628382
 ---------------------------------------------------------------------
 Rotational constants (GHZ):           0.1786181           0.0509737           0.0415469
 Standard basis: 6-31G(d) (6D, 7F)
 There are   530 symmetry adapted cartesian basis functions of A   symmetry.
 There are   530 symmetry adapted basis functions of A   symmetry.
   530 basis functions,  1028 primitive gaussians,   530 cartesian basis functions
   127 alpha electrons      127 beta electrons
       nuclear repulsion energy      3679.7040242314 Hartrees.
 NAtoms=   53 NActive=   53 NUniq=   53 SFac= 1.00D+00 NAtFMM=   60 NAOKFM=F Big=F
 Integral buffers will be    131072 words long.
 Raffenetti 2 integral format.
 Two-electron integral symmetry is turned on.
 One-electron integrals computed using PRISM.
 NBasis=   530 RedAO= T EigKep=  3.46D-04  NBF=   530
 NBsUse=   530 1.00D-06 EigRej= -1.00D+00 NBFU=   530
 ExpMin= 9.98D-02 ExpMax= 2.19D+04 ExpMxC= 3.30D+03 IAcc=3 IRadAn=         5 AccDes= 0.00D+00
 Harris functional with IExCor=  402 and IRadAn=       5 diagonalized for initial guess.
 HarFok:  IExCor=  402 AccDes= 0.00D+00 IRadAn=         5 IDoV= 1 UseB2=F ITyADJ=14
 ICtDFT=  3500011 ScaDFX=  1.000000  1.000000  1.000000  1.000000
 FoFCou: FMM=F IPFlag=           0 FMFlag=      100000 FMFlg1=           0
         NFxFlg=           0 DoJE=T BraDBF=F KetDBF=T FulRan=T
         wScrn=  0.000000 ICntrl=       500 IOpCl=  0 I1Cent=   200000004 NGrid=           0
         NMat0=    1 NMatS0=      1 NMatT0=    0 NMatD0=    1 NMtDS0=    0 NMtDT0=    0
 Petite list used in FoFCou.
 Requested convergence on RMS density matrix=1.00D-08 within 128 cycles.
 Requested convergence on MAX density matrix=1.00D-06.
 Requested convergence on             energy=1.00D-06.
 No special actions if energy rises.
 Integral accuracy reduced to 1.0D-05 until final iterations.
 EnCoef did     1 forward-backward iterations
 EnCoef did     3 forward-backward iterations
 Initial convergence to 1.0D-05 achieved.  Increase integral accuracy.
 SCF Done:  E(RB3LYP) =  -2336.20679720     A.U. after   27 cycles
            NFock= 27  Conv=0.36D-08     -V/T= 2.0069

 **********************************************************************

            Population analysis using the SCF Density.

 **********************************************************************

 Orbital symmetries:
       Occupied  (A) (A) (A) (A) (A) (A) (A) (A) (A) (A) (A) (A)
                 (A) (A) (A) (A) (A) (A) (A) (A) (A) (A) (A) (A)
                 (A) (A) (A) (A) (A) (A) (A) (A) (A) (A) (A) (A)
                 (A) (A) (A) (A) (A) (A) (A) (A) (A) (A) (A) (A)
                 (A) (A) (A) (A) (A) (A) (A) (A) (A) (A) (A) (A)
                 (A) (A) (A) (A) (A) (A) (A) (A) (A) (A) (A) (A)
                 (A) (A) (A) (A) (A) (A) (A) (A) (A) (A) (A) (A)
                 (A) (A) (A) (A) (A) (A) (A) (A) (A) (A) (A) (A)
                 (A) (A) (A) (A) (A) (A) (A) (A) (A) (A) (A) (A)
                 (A) (A) (A) (A) (A) (A) (A) (A) (A) (A) (A) (A)
                 (A) (A) (A) (A) (A) (A) (A)
       Virtual   (A) (A) (A) (A) (A) (A) (A) (A) (A) (A) (A) (A)
                 (A) (A) (A) (A) (A) (A) (A) (A) (A) (A) (A) (A)
                 (A) (A) (A) (A) (A) (A) (A) (A) (A) (A) (A) (A)
                 (A) (A) (A) (A) (A) (A) (A) (A) (A) (A) (A) (A)
                 (A) (A) (A) (A) (A) (A) (A) (A) (A) (A) (A) (A)
                 (A) (A) (A) (A) (A) (A) (A) (A) (A) (A) (A) (A)
                 (A) (A) (A) (A) (A) (A) (A) (A) (A) (A) (A) (A)
                 (A) (A) (A) (A) (A) (A) (A) (A) (A) (A) (A) (A)
                 (A) (A) (A) (A) (A) (A) (A) (A) (A) (A) (A) (A)
                 (A) (A) (A) (A) (A) (A) (A) (A) (A) (A) (A) (A)
                 (A) (A) (A) (A) (A) (A) (A) (A) (A) (A) (A) (A)
                 (A) (A) (A) (A) (A) (A) (A) (A) (A) (A) (A) (A)
                 (A) (A) (A) (A) (A) (A) (A) (A) (A) (A) (A) (A)
                 (A) (A) (A) (A) (A) (A) (A) (A) (A) (A) (A) (A)
                 (A) (A) (A) (A) (A) (A) (A) (A) (A) (A) (A) (A)
                 (A) (A) (A) (A) (A) (A) (A) (A) (A) (A) (A) (A)
                 (A) (A) (A) (A) (A) (A) (A) (A) (A) (A) (A) (A)
                 (A) (A) (A) (A) (A) (A) (A) (A) (A) (A) (A) (A)
                 (A) (A) (A) (A) (A) (A) (A) (A) (A) (A) (A) (A)
                 (A) (A) (A) (A) (A) (A) (A) (A) (A) (A) (A) (A)
                 (A) (A) (A) (A) (A) (A) (A) (A) (A) (A) (A) (A)
                 (A) (A) (A) (A) (A) (A) (A) (A) (A) (A) (A) (A)
                 (A) (A) (A) (A) (A) (A) (A) (A) (A) (A) (A) (A)
                 (A) (A) (A) (A) (A) (A) (A) (A) (A) (A) (A) (A)
                 (A) (A) (A) (A) (A) (A) (A) (A) (A) (A) (A) (A)
                 (A) (A) (A) (A) (A) (A) (A) (A) (A) (A) (A) (A)
                 (A) (A) (A) (A) (A) (A) (A) (A) (A) (A) (A) (A)
                 (A) (A) (A) (A) (A) (A) (A) (A) (A) (A) (A) (A)
                 (A) (A) (A) (A) (A) (A) (A) (A) (A) (A) (A) (A)
                 (A) (A) (A) (A) (A) (A) (A) (A) (A) (A) (A) (A)
                 (A) (A) (A) (A) (A) (A) (A) (A) (A) (A) (A) (A)
                 (A) (A) (A) (A) (A) (A) (A) (A) (A) (A) (A) (A)
                 (A) (A) (A) (A) (A) (A) (A) (A) (A) (A) (A) (A)
                 (A) (A) (A) (A) (A) (A) (A)
 The electronic state is 1-A.
 Alpha  occ. eigenvalues --  -88.96646 -77.23485 -24.59059 -24.57849 -24.57072
 Alpha  occ. eigenvalues --  -24.56960 -24.56218 -24.56199 -19.30335 -14.38260
 Alpha  occ. eigenvalues --  -14.32818 -10.35434 -10.34590 -10.31832 -10.29925
 Alpha  occ. eigenvalues --  -10.28752 -10.28213 -10.27944 -10.27787 -10.27180
 Alpha  occ. eigenvalues --  -10.26673 -10.26283 -10.26199 -10.25774 -10.25068
 Alpha  occ. eigenvalues --  -10.24450 -10.24449 -10.24327 -10.24080 -10.24057
 Alpha  occ. eigenvalues --  -10.18294 -10.17678  -8.02903  -6.65527  -5.99303
 Alpha  occ. eigenvalues --   -5.98890  -5.98627  -4.82090  -4.82062  -4.82051
 Alpha  occ. eigenvalues --   -1.16691  -1.15185  -1.08098  -1.07266  -1.06993
 Alpha  occ. eigenvalues --   -1.03850  -1.03699  -0.98408  -0.96010  -0.94424
 Alpha  occ. eigenvalues --   -0.93188  -0.91341  -0.86551  -0.83532  -0.80964
 Alpha  occ. eigenvalues --   -0.80141  -0.79262  -0.78644  -0.75550  -0.73182
 Alpha  occ. eigenvalues --   -0.72012  -0.69761  -0.68983  -0.67846  -0.65939
 Alpha  occ. eigenvalues --   -0.64231  -0.61399  -0.61029  -0.59749  -0.59297
 Alpha  occ. eigenvalues --   -0.57396  -0.55686  -0.55554  -0.55139  -0.54097
 Alpha  occ. eigenvalues --   -0.52676  -0.52577  -0.50489  -0.50348  -0.49789
 Alpha  occ. eigenvalues --   -0.49445  -0.48459  -0.47261  -0.46960  -0.45964
 Alpha  occ. eigenvalues --   -0.45707  -0.45148  -0.44894  -0.44686  -0.44473
 Alpha  occ. eigenvalues --   -0.44392  -0.44012  -0.43828  -0.43611  -0.42964
 Alpha  occ. eigenvalues --   -0.42740  -0.41986  -0.41665  -0.41337  -0.41247
 Alpha  occ. eigenvalues --   -0.40021  -0.39319  -0.39210  -0.36744  -0.36480
 Alpha  occ. eigenvalues --   -0.35988  -0.35770  -0.35509  -0.35317  -0.33652
 Alpha  occ. eigenvalues --   -0.33335  -0.32970  -0.30988  -0.30385  -0.29580
 Alpha  occ. eigenvalues --   -0.29559  -0.29177  -0.29063  -0.28840  -0.28723
 Alpha  occ. eigenvalues --   -0.28596  -0.28495  -0.27342  -0.25166  -0.24967
 Alpha  occ. eigenvalues --   -0.24779  -0.19621
 Alpha virt. eigenvalues --   -0.17185  -0.08941  -0.06749  -0.06294  -0.05212
 Alpha virt. eigenvalues --   -0.01438  -0.00597   0.00973   0.02027   0.04079
 Alpha virt. eigenvalues --    0.05401   0.06255   0.06590   0.07523   0.08261
 Alpha virt. eigenvalues --    0.09289   0.09717   0.10972   0.11575   0.11669
 Alpha virt. eigenvalues --    0.11905   0.12428   0.12551   0.12933   0.13433
 Alpha virt. eigenvalues --    0.14274   0.15199   0.15491   0.16198   0.17029
 Alpha virt. eigenvalues --    0.17343   0.17628   0.17794   0.18891   0.19312
 Alpha virt. eigenvalues --    0.19897   0.20395   0.20572   0.20929   0.21853
 Alpha virt. eigenvalues --    0.22429   0.22826   0.23401   0.24553   0.25178
 Alpha virt. eigenvalues --    0.25686   0.26608   0.27136   0.27339   0.29248
 Alpha virt. eigenvalues --    0.30077   0.30917   0.31867   0.33882   0.34122
 Alpha virt. eigenvalues --    0.34236   0.35265   0.35656   0.36641   0.36854
 Alpha virt. eigenvalues --    0.37756   0.39412   0.39474   0.40190   0.42832
 Alpha virt. eigenvalues --    0.44065   0.44691   0.44811   0.45022   0.45405
 Alpha virt. eigenvalues --    0.46105   0.46200   0.46470   0.46947   0.47637
 Alpha virt. eigenvalues --    0.47856   0.48098   0.48389   0.49505   0.49981
 Alpha virt. eigenvalues --    0.50692   0.50857   0.51995   0.52425   0.52880
 Alpha virt. eigenvalues --    0.53430   0.53653   0.53936   0.54346   0.54495
 Alpha virt. eigenvalues --    0.55426   0.55708   0.56401   0.57169   0.57767
 Alpha virt. eigenvalues --    0.58507   0.59032   0.59859   0.60289   0.61670
 Alpha virt. eigenvalues --    0.62168   0.64033   0.64039   0.65215   0.66785
 Alpha virt. eigenvalues --    0.67609   0.68120   0.68790   0.69134   0.69659
 Alpha virt. eigenvalues --    0.69703   0.70679   0.72153   0.73259   0.73772
 Alpha virt. eigenvalues --    0.74599   0.75775   0.76246   0.76646   0.77249
 Alpha virt. eigenvalues --    0.77457   0.78849   0.79252   0.79326   0.80426
 Alpha virt. eigenvalues --    0.80707   0.80844   0.81375   0.82060   0.82310
 Alpha virt. eigenvalues --    0.82572   0.82864   0.83051   0.83623   0.83845
 Alpha virt. eigenvalues --    0.84799   0.85698   0.86632   0.87487   0.87791
 Alpha virt. eigenvalues --    0.88070   0.88312   0.89446   0.90379   0.91367
 Alpha virt. eigenvalues --    0.92129   0.93216   0.93454   0.94069   0.95121
 Alpha virt. eigenvalues --    0.96137   0.96322   0.96530   0.96928   0.97481
 Alpha virt. eigenvalues --    0.99166   1.00127   1.00828   1.02020   1.02404
 Alpha virt. eigenvalues --    1.02655   1.03701   1.04087   1.04808   1.07061
 Alpha virt. eigenvalues --    1.07667   1.07931   1.08406   1.09878   1.10300
 Alpha virt. eigenvalues --    1.11486   1.12870   1.14307   1.14571   1.15089
 Alpha virt. eigenvalues --    1.15462   1.17131   1.18558   1.19007   1.22470
 Alpha virt. eigenvalues --    1.23493   1.24096   1.24451   1.25105   1.25800
 Alpha virt. eigenvalues --    1.26437   1.27874   1.27919   1.28537   1.28744
 Alpha virt. eigenvalues --    1.29459   1.30443   1.31063   1.32649   1.32721
 Alpha virt. eigenvalues --    1.33748   1.34070   1.35025   1.35296   1.36085
 Alpha virt. eigenvalues --    1.36879   1.37626   1.38647   1.38939   1.39781
 Alpha virt. eigenvalues --    1.40172   1.41312   1.41586   1.42162   1.42475
 Alpha virt. eigenvalues --    1.43702   1.44855   1.46296   1.46569   1.48095
 Alpha virt. eigenvalues --    1.48844   1.50657   1.53110   1.53690   1.54223
 Alpha virt. eigenvalues --    1.55610   1.56425   1.57298   1.60324   1.61643
 Alpha virt. eigenvalues --    1.62498   1.63588   1.63653   1.64182   1.65916
 Alpha virt. eigenvalues --    1.66919   1.68214   1.68784   1.70817   1.71358
 Alpha virt. eigenvalues --    1.74515   1.75109   1.75477   1.77856   1.78159
 Alpha virt. eigenvalues --    1.78782   1.79388   1.79680   1.80954   1.81818
 Alpha virt. eigenvalues --    1.82181   1.82430   1.82875   1.83631   1.84913
 Alpha virt. eigenvalues --    1.85894   1.86339   1.87393   1.87826   1.89105
 Alpha virt. eigenvalues --    1.89261   1.90288   1.91758   1.92113   1.93259
 Alpha virt. eigenvalues --    1.93561   1.94332   1.94402   1.95214   1.95704
 Alpha virt. eigenvalues --    1.96029   1.97423   1.97665   1.98201   1.98711
 Alpha virt. eigenvalues --    1.99704   2.00027   2.02239   2.02712   2.03368
 Alpha virt. eigenvalues --    2.03692   2.04315   2.04921   2.05089   2.05672
 Alpha virt. eigenvalues --    2.06862   2.07183   2.08652   2.09035   2.09981
 Alpha virt. eigenvalues --    2.10038   2.10254   2.10898   2.11842   2.12308
 Alpha virt. eigenvalues --    2.12722   2.13397   2.14264   2.14389   2.14790
 Alpha virt. eigenvalues --    2.14861   2.15109   2.15209   2.17891   2.18037
 Alpha virt. eigenvalues --    2.18443   2.19430   2.20214   2.20789   2.21271
 Alpha virt. eigenvalues --    2.21821   2.22988   2.23349   2.23972   2.24222
 Alpha virt. eigenvalues --    2.25610   2.25768   2.26608   2.27414   2.28099
 Alpha virt. eigenvalues --    2.28574   2.28762   2.28934   2.29906   2.30258
 Alpha virt. eigenvalues --    2.32011   2.32379   2.33965   2.34570   2.35735
 Alpha virt. eigenvalues --    2.39546   2.40995   2.41432   2.43039   2.45209
 Alpha virt. eigenvalues --    2.48205   2.49433   2.50591   2.51842   2.52892
 Alpha virt. eigenvalues --    2.53445   2.54815   2.56309   2.58499   2.59625
 Alpha virt. eigenvalues --    2.61970   2.62008   2.62865   2.64961   2.67693
 Alpha virt. eigenvalues --    2.68107   2.69463   2.73613   2.74519   2.75589
 Alpha virt. eigenvalues --    2.75644   2.75880   2.76409   2.79161   2.80371
 Alpha virt. eigenvalues --    2.80804   2.81269   2.85309   2.88477   2.89698
 Alpha virt. eigenvalues --    2.91725   2.96248   2.97988   2.99683   3.02233
 Alpha virt. eigenvalues --    3.09987   3.20447   3.21527   3.24023   3.38885
 Alpha virt. eigenvalues --    3.41151   3.90607   4.00715   4.03141   4.03617
 Alpha virt. eigenvalues --    4.04947   4.05784   4.06188   4.07566   4.08791
 Alpha virt. eigenvalues --    4.10585   4.13292   4.14144   4.16642   4.18470
 Alpha virt. eigenvalues --    4.22319   4.24782   4.26799   4.29413   4.29561
 Alpha virt. eigenvalues --    4.31548   4.33934   4.38577   4.41221   4.43799
 Alpha virt. eigenvalues --    4.49762   4.56231   4.66704   4.83430   4.86872
 Alpha virt. eigenvalues --    4.91695   4.96895   5.66831
          Condensed to atoms (all electrons):
 Mulliken charges:
               1
     1  C   -0.146592
     2  C   -0.179506
     3  C    0.089519
     4  C    0.331836
     5  C   -0.205900
     6  C    0.262541
     7  C    0.329650
     8  C    0.100363
     9  C   -0.184122
    10  H    0.182778
    11  C   -0.131960
    12  C    0.256637
    13  C   -0.201432
    14  H    0.166263
    15  H    0.188381
    16  H    0.195979
    17  H    0.177226
    18  H    0.232817
    19  N   -0.362771
    20  N   -0.442824
    21  P    1.416016
    22  C    0.067961
    23  C   -0.289298
    24  C   -0.093478
    25  S    0.322624
    26  C   -0.107376
    27  H    0.163298
    28  C   -0.336997
    29  H    0.164821
    30  H    0.197322
    31  O   -0.538467
    32  C   -0.318776
    33  H    0.225422
    34  H    0.108473
    35  H    0.149275
    36  C   -0.330996
    37  H    0.103620
    38  H    0.239103
    39  H    0.152755
    40  C   -0.314979
    41  H    0.135468
    42  H    0.181338
    43  H    0.172352
    44  C   -0.314919
    45  H    0.172809
    46  H    0.180592
    47  H    0.134978
    48  F   -0.379075
    49  F   -0.380514
    50  F   -0.376546
    51  F   -0.388404
    52  F   -0.387843
    53  F   -0.389443
 Sum of Mulliken charges =  -0.00000
 Mulliken charges with hydrogens summed into heavy atoms:
               1
     1  C    0.019670
     2  C    0.008875
     3  C    0.089519
     4  C    0.331836
     5  C   -0.009921
     6  C    0.262541
     7  C    0.329650
     8  C    0.100363
     9  C   -0.001343
    11  C    0.045266
    12  C    0.256637
    13  C    0.031385
    19  N   -0.362771
    20  N   -0.442824
    21  P    1.416016
    22  C    0.067961
    23  C   -0.289298
    24  C    0.069820
    25  S    0.322624
    26  C    0.057445
    28  C   -0.139675
    31  O   -0.538467
    32  C    0.164395
    36  C    0.164483
    40  C    0.174179
    44  C    0.173460
    48  F   -0.379075
    49  F   -0.380514
    50  F   -0.376546
    51  F   -0.388404
    52  F   -0.387843
    53  F   -0.389443
 Electronic spatial extent (au):  <R**2>=          23578.2993
 Charge=             -0.0000 electrons
 Dipole moment (field-independent basis, Debye):
    X=             31.3712    Y=              6.9616    Z=              0.7224  Tot=             32.1425
 Quadrupole moment (field-independent basis, Debye-Ang):
   XX=           -265.3817   YY=           -169.3765   ZZ=           -192.9994
   XY=            -37.2282   XZ=              2.2843   YZ=              1.5383
 Traceless Quadrupole moment (field-independent basis, Debye-Ang):
   XX=            -56.1292   YY=             39.8760   ZZ=             16.2531
   XY=            -37.2282   XZ=              2.2843   YZ=              1.5383
 Octapole moment (field-independent basis, Debye-Ang**2):
  XXX=            924.2347  YYY=             20.0764  ZZZ=              4.0276  XYY=            113.5670
  XXY=            114.8677  XXZ=              7.5621  XZZ=            -37.9532  YZZ=             -7.4152
  YYZ=              2.3276  XYZ=              4.8078
 Hexadecapole moment (field-independent basis, Debye-Ang**3):
 XXXX=         -24804.9777 YYYY=          -6114.3732 ZZZZ=           -861.5617 XXXY=          -1346.8248
 XXXZ=              3.7562 YYYX=            189.4206 YYYZ=            -14.4543 ZZZX=             18.8244
 ZZZY=             17.0077 XXYY=          -4007.2698 XXZZ=          -3752.5175 YYZZ=          -1177.8795
 XXYZ=              9.7725 YYXZ=              6.5448 ZZXY=             35.8898
 N-N= 3.679704024231D+03 E-N=-1.285880792321D+04  KE= 2.320147293239D+03
 Calling FoFJK, ICntrl=      2127 FMM=F ISym2X=0 I1Cent= 0 IOpClX= 0 NMat=1 NMatS=1 NMatT=0.
 ***** Axes restored to original set *****
 -------------------------------------------------------------------
 Center     Atomic                   Forces (Hartrees/Bohr)
 Number     Number              X              Y              Z
 -------------------------------------------------------------------
      1        6          -0.006142968   -0.004578077   -0.000075828
      2        6           0.008445014   -0.005904103   -0.000122689
      3        6          -0.013837792    0.000747223   -0.000220912
      4        6           0.004952587    0.002225798    0.000646137
      5        6           0.024525964    0.045130592   -0.000032152
      6        6          -0.021978719   -0.023403079    0.000215536
      7        6           0.001274508    0.008389927   -0.000047122
      8        6           0.001005870   -0.001593670    0.000854534
      9        6           0.006505087   -0.008660250   -0.000455102
     10        1          -0.005694274    0.009687694   -0.000696427
     11        6           0.006357816   -0.005176522    0.005542514
     12        6           0.040753627    0.020968805    0.000783083
     13        6          -0.061837987   -0.001938587   -0.003483921
     14        1           0.007788999    0.007810679   -0.000141576
     15        1          -0.005943973    0.009758621    0.000447475
     16        1           0.002940829   -0.009809371    0.000106968
     17        1          -0.010842058   -0.002078596   -0.000070336
     18        1           0.009476663   -0.005139905    0.000335762
     19        7          -0.001013439   -0.046036201   -0.000826480
     20        7           0.022599363    0.010057892    0.000126698
     21       15          -0.018592700    0.029022031    0.000609027
     22        6           0.026371336   -0.027343626   -0.002524872
     23        6          -0.023528442    0.039266932    0.033661687
     24        6           0.004482814   -0.007984070    0.005098484
     25       16          -0.003675187    0.006552596   -0.050834895
     26        6          -0.002599491    0.004224780    0.003405382
     27        1          -0.000345654    0.000941103   -0.005739425
     28        6           0.016275996   -0.028205576    0.022902533
     29        1          -0.001153080    0.002233347   -0.005368617
     30        1          -0.002806831    0.005024654   -0.001582478
     31        8           0.005148071   -0.016793544    0.000005329
     32        6          -0.016211195    0.005259977    0.008938844
     33        1           0.002233415    0.014253809    0.000275235
     34        1           0.020784164   -0.013874176   -0.003351111
     35        1          -0.008019801   -0.002921803   -0.014917950
     36        6          -0.014136259   -0.004210060   -0.010690571
     37        1           0.020955640   -0.015213149    0.004231354
     38        1           0.002012410    0.011511816   -0.000422328
     39        1          -0.008774285   -0.001800388    0.014244508
     40        6           0.006538753    0.013310340    0.013590312
     41        1           0.000304689   -0.023417224   -0.004387849
     42        1          -0.016782595    0.002635661   -0.001967803
     43        1           0.005626711    0.005481890   -0.014278202
     44        6           0.006831654    0.013874610   -0.013777512
     45        1           0.005130832    0.006159449    0.014273434
     46        1          -0.016836819    0.002032159    0.001285913
     47        1           0.000975814   -0.023306871    0.004943817
     48        9          -0.017855132    0.010593543    0.002829218
     49        9          -0.002537155   -0.000912397   -0.000202785
     50        9           0.002673813   -0.001329139   -0.000099716
     51        9           0.012984812    0.003711476   -0.002541224
     52        9           0.002472982   -0.004500949    0.003056867
     53        9           0.002715604   -0.004736074   -0.003550766
 -------------------------------------------------------------------
 Cartesian Forces:  Max     0.061837987 RMS     0.013997471

 GradGradGradGradGradGradGradGradGradGradGradGradGradGradGradGradGradGrad
 Berny optimization.
 FormGI is forming the generalized inverse of G from B-inverse, IUseBI=4.
 Internal  Forces:  Max     0.087061654 RMS     0.012917939
 Search for a local minimum.
 Step number   1 out of a maximum of  289
 All quantities printed in internal units (Hartrees-Bohrs-Radians)
 Mixed Optimization -- RFO/linear search
 Second derivative matrix not updated -- first step.
 ITU=  0
     Eigenvalues ---    0.00230   0.00237   0.00499   0.00766   0.00766
     Eigenvalues ---    0.00766   0.00766   0.00766   0.00766   0.01407
     Eigenvalues ---    0.01514   0.01680   0.01684   0.01694   0.01696
     Eigenvalues ---    0.01699   0.01751   0.01789   0.01817   0.01943
     Eigenvalues ---    0.01967   0.01971   0.02042   0.02044   0.02060
     Eigenvalues ---    0.02062   0.02097   0.02119   0.02119   0.02217
     Eigenvalues ---    0.02223   0.02255   0.02293   0.02312   0.02315
     Eigenvalues ---    0.02751   0.03454   0.03454   0.04676   0.06336
     Eigenvalues ---    0.07062   0.07537   0.07537   0.07537   0.07537
     Eigenvalues ---    0.07537   0.07537   0.11090   0.11651   0.11651
     Eigenvalues ---    0.13823   0.13876   0.13876   0.13876   0.13876
     Eigenvalues ---    0.16000   0.16000   0.16000   0.16000   0.16000
     Eigenvalues ---    0.16000   0.16000   0.16000   0.16000   0.16000
     Eigenvalues ---    0.16000   0.16000   0.16000   0.16000   0.16000
     Eigenvalues ---    0.16000   0.16000   0.16000   0.16000   0.16000
     Eigenvalues ---    0.16276   0.16276   0.17820   0.17820   0.20550
     Eigenvalues ---    0.22141   0.22395   0.22422   0.23508   0.23516
     Eigenvalues ---    0.23856   0.24605   0.24628   0.25000   0.25000
     Eigenvalues ---    0.25000   0.25000   0.25000   0.25000   0.25000
     Eigenvalues ---    0.25000   0.25000   0.25000   0.28519   0.33629
     Eigenvalues ---    0.33629   0.33632   0.33632   0.33681   0.33683
     Eigenvalues ---    0.34641   0.34642   0.35021   0.35740   0.35740
     Eigenvalues ---    0.35740   0.35740   0.35740   0.35740   0.35891
     Eigenvalues ---    0.37230   0.37230   0.37230   0.37230   0.37230
     Eigenvalues ---    0.37230   0.37230   0.37230   0.37230   0.37230
     Eigenvalues ---    0.37230   0.37230   0.37478   0.37651   0.38377
     Eigenvalues ---    0.38612   0.38646   0.40213   0.40236   0.40751
     Eigenvalues ---    0.41168   0.41414   0.42507   0.44933   0.45767
     Eigenvalues ---    0.45768   0.45828   0.45828   0.45828   0.45828
     Eigenvalues ---    0.45828   0.45828   0.46435   0.49231   0.49862
     Eigenvalues ---    0.49873   0.51311   0.51348
 RFO step:  Lambda=-1.42947960D-01 EMin= 2.30000000D-03
 Linear search not attempted -- first point.
 Maximum step size (   0.300) exceeded in Quadratic search.
    -- Step size scaled by   0.582
 Iteration  1 RMS(Cart)=  0.17290394 RMS(Int)=  0.01300267
 Iteration  2 RMS(Cart)=  0.11613278 RMS(Int)=  0.00543777
 Iteration  3 RMS(Cart)=  0.00826695 RMS(Int)=  0.00010647
 Iteration  4 RMS(Cart)=  0.00007011 RMS(Int)=  0.00009689
 Iteration  5 RMS(Cart)=  0.00000001 RMS(Int)=  0.00009689
 Variable       Old X    -DE/DX   Delta X   Delta X   Delta X     New X
                                 (Linear)    (Quad)   (Total)
    R1        2.57876   0.00566   0.00000   0.00547   0.00545   2.58421
    R2        2.69438   0.00232   0.00000   0.00312   0.00308   2.69747
    R3        2.07869  -0.01071   0.00000  -0.01299  -0.01299   2.06570
    R4        2.70768  -0.00310   0.00000  -0.00339  -0.00337   2.70430
    R5        2.07956  -0.01142   0.00000  -0.01388  -0.01388   2.06568
    R6        2.70000  -0.00605   0.00000  -0.00716  -0.00712   2.69287
    R7        2.64391   0.01576   0.00000   0.01660   0.01660   2.66051
    R8        2.70768  -0.02776   0.00000  -0.03004  -0.03002   2.67766
    R9        2.64390  -0.04045   0.00000  -0.04063  -0.04063   2.60326
   R10        2.57875   0.01322   0.00000   0.01171   0.01170   2.59045
   R11        2.07956  -0.00998   0.00000  -0.01212  -0.01212   2.06744
   R12        2.77790  -0.01461   0.00000  -0.01700  -0.01700   2.76090
   R13        2.69991   0.00141   0.00000   0.00093   0.00097   2.70089
   R14        2.70759  -0.03383   0.00000  -0.03647  -0.03646   2.67114
   R15        2.64399  -0.03624   0.00000  -0.03646  -0.03646   2.60753
   R16        2.70761   0.00046   0.00000   0.00043   0.00045   2.70806
   R17        2.64397   0.00599   0.00000   0.00723   0.00724   2.65121
   R18        2.07960  -0.01124   0.00000  -0.01366  -0.01366   2.06594
   R19        2.57881   0.00278   0.00000   0.00293   0.00291   2.58172
   R20        2.69428   0.00723   0.00000   0.00818   0.00813   2.70241
   R21        2.07872  -0.01090   0.00000  -0.01323  -0.01323   2.06548
   R22        2.57884   0.01646   0.00000   0.01452   0.01449   2.59333
   R23        2.77790  -0.02861   0.00000  -0.03330  -0.03330   2.74460
   R24        2.07961  -0.00930   0.00000  -0.01130  -0.01130   2.06831
   R25        2.77790   0.00679   0.00000   0.00790   0.00790   2.78580
   R26        2.77790  -0.00327   0.00000  -0.00380  -0.00380   2.77409
   R27        2.77790   0.00807   0.00000   0.00939   0.00939   2.78729
   R28        2.77790   0.00734   0.00000   0.00854   0.00854   2.78643
   R29        3.08025  -0.00186   0.00000  -0.00181  -0.00181   3.07845
   R30        3.08025   0.00190   0.00000   0.00184   0.00184   3.08209
   R31        3.08025  -0.00005   0.00000  -0.00005  -0.00005   3.08021
   R32        3.08025   0.04017   0.00000   0.03890   0.03890   3.11916
   R33        3.08025   0.00299   0.00000   0.00290   0.00290   3.08315
   R34        3.08025   0.00362   0.00000   0.00350   0.00350   3.08376
   R35        2.91018  -0.02577   0.00000  -0.03505  -0.03505   2.87513
   R36        2.60258   0.00224   0.00000   0.00189   0.00188   2.60446
   R37        3.15994   0.03447   0.00000   0.03833   0.03835   3.19829
   R38        2.70631  -0.00307   0.00000  -0.00435  -0.00438   2.70193
   R39        2.06260  -0.00510   0.00000  -0.00607  -0.00607   2.05653
   R40        3.16005   0.02918   0.00000   0.03226   0.03229   3.19233
   R41        2.60252  -0.00124   0.00000  -0.00167  -0.00168   2.60083
   R42        2.06262  -0.00549   0.00000  -0.00654  -0.00654   2.05608
   R43        2.05641  -0.00433   0.00000  -0.00511  -0.00511   2.05130
   R44        2.02201   0.01405   0.00000   0.01588   0.01588   2.03788
   R45        2.02201   0.02436   0.00000   0.02753   0.02753   2.04954
   R46        2.02201   0.01699   0.00000   0.01921   0.01921   2.04121
   R47        2.02201   0.02535   0.00000   0.02864   0.02864   2.05065
   R48        2.02201   0.03414   0.00000   0.03858   0.03858   2.06058
   R49        2.02201   0.01668   0.00000   0.01885   0.01885   2.04086
   R50        3.68669   0.02949   0.00000   0.09051   0.09051   3.77720
   R51        2.02201   0.02253   0.00000   0.02546   0.02546   2.04747
   R52        2.02201   0.01709   0.00000   0.01932   0.01932   2.04133
   R53        2.02201   0.01603   0.00000   0.01811   0.01811   2.04012
   R54        2.02201   0.01615   0.00000   0.01825   0.01825   2.04026
   R55        2.02201   0.01700   0.00000   0.01922   0.01922   2.04122
   R56        2.02201   0.02251   0.00000   0.02544   0.02544   2.04744
    A1        2.10219  -0.00039   0.00000   0.00146   0.00141   2.10360
    A2        2.11114  -0.00257   0.00000  -0.00605  -0.00602   2.10512
    A3        2.06985   0.00296   0.00000   0.00459   0.00461   2.07447
    A4        2.10772  -0.00138   0.00000  -0.00136  -0.00136   2.10636
    A5        2.11455   0.00065   0.00000   0.00060   0.00060   2.11516
    A6        2.06091   0.00073   0.00000   0.00075   0.00076   2.06166
    A7        2.07328  -0.00571   0.00000  -0.01052  -0.01047   2.06280
    A8        2.12408   0.01134   0.00000   0.01644   0.01640   2.14048
    A9        2.08583  -0.00563   0.00000  -0.00592  -0.00593   2.07990
   A10        2.07322   0.01608   0.00000   0.02323   0.02328   2.09650
   A11        2.08592   0.01043   0.00000   0.01389   0.01388   2.09980
   A12        2.12404  -0.02651   0.00000  -0.03712  -0.03716   2.08688
   A13        2.10775  -0.00530   0.00000  -0.00915  -0.00914   2.09861
   A14        2.06081   0.00505   0.00000   0.00919   0.00919   2.07000
   A15        2.11463   0.00025   0.00000  -0.00005  -0.00005   2.11457
   A16        2.10221  -0.00330   0.00000  -0.00367  -0.00372   2.09849
   A17        2.06931   0.01920   0.00000   0.02784   0.02786   2.09717
   A18        2.11167  -0.01590   0.00000  -0.02417  -0.02414   2.08752
   A19        2.07336   0.01677   0.00000   0.02427   0.02433   2.09769
   A20        2.08584   0.00899   0.00000   0.01208   0.01206   2.09790
   A21        2.12399  -0.02576   0.00000  -0.03635  -0.03639   2.08759
   A22        2.07314  -0.00508   0.00000  -0.00953  -0.00947   2.06368
   A23        2.08592  -0.00624   0.00000  -0.00652  -0.00653   2.07939
   A24        2.12413   0.01132   0.00000   0.01604   0.01599   2.14012
   A25        2.06079   0.00134   0.00000   0.00157   0.00157   2.06236
   A26        2.10779  -0.00297   0.00000  -0.00371  -0.00370   2.10409
   A27        2.11460   0.00163   0.00000   0.00214   0.00213   2.11673
   A28        2.10223  -0.00066   0.00000   0.00108   0.00102   2.10325
   A29        2.11138  -0.00146   0.00000  -0.00398  -0.00395   2.10743
   A30        2.06958   0.00212   0.00000   0.00290   0.00293   2.07251
   A31        2.10211  -0.00109   0.00000  -0.00039  -0.00045   2.10166
   A32        2.06962   0.02556   0.00000   0.03725   0.03729   2.10690
   A33        2.11145  -0.02446   0.00000  -0.03687  -0.03684   2.07462
   A34        2.10773  -0.00698   0.00000  -0.01173  -0.01174   2.09599
   A35        2.06076   0.00915   0.00000   0.01676   0.01676   2.07752
   A36        2.11469  -0.00218   0.00000  -0.00502  -0.00502   2.10967
   A37        1.91063   0.00375   0.00000   0.01193   0.01174   1.92237
   A38        1.91063   0.00011   0.00000   0.00499   0.00473   1.91536
   A39        1.91063   0.00627   0.00000   0.01585   0.01569   1.92633
   A40        1.91063   0.00201   0.00000   0.00721   0.00710   1.91773
   A41        1.91063   0.00204   0.00000   0.00727   0.00716   1.91779
   A42        1.91063   0.00311   0.00000   0.00888   0.00878   1.91942
   A43        1.57080  -0.01737   0.00000  -0.02526  -0.02525   1.54554
   A44        1.57080   0.03261   0.00000   0.05677   0.05676   1.62756
   A45        1.57080  -0.00376   0.00000  -0.00787  -0.00776   1.56304
   A46        1.57080  -0.00000   0.00000  -0.00056  -0.00044   1.57036
   A47        1.57080   0.00377   0.00000  -0.00285  -0.00285   1.56795
   A48        1.57080   0.00338   0.00000   0.00710   0.00711   1.57790
   A49        1.57080   0.00328   0.00000   0.00667   0.00662   1.57741
   A50        1.57080  -0.01902   0.00000  -0.02866  -0.02866   1.54214
   A51        1.57080   0.00194   0.00000   0.00380   0.00388   1.57468
   A52        1.57080   0.00182   0.00000   0.00464   0.00471   1.57551
   A53        1.57080  -0.00291   0.00000  -0.00612  -0.00593   1.56487
   A54        1.57080  -0.00376   0.00000  -0.00765  -0.00752   1.56327
   A55        2.11143  -0.01196   0.00000  -0.01355  -0.01351   2.09792
   A56        2.08585   0.00556   0.00000   0.00615   0.00614   2.09199
   A57        2.08590   0.00640   0.00000   0.00740   0.00738   2.09328
   A58        2.19350   0.00233   0.00000   0.00312   0.00312   2.19662
   A59        2.14259  -0.00223   0.00000  -0.00362  -0.00363   2.13896
   A60        1.94710  -0.00010   0.00000   0.00050   0.00051   1.94761
   A61        1.94642   0.00426   0.00000   0.00461   0.00457   1.95099
   A62        2.18794  -0.00503   0.00000  -0.00788  -0.00786   2.18008
   A63        2.14883   0.00077   0.00000   0.00327   0.00329   2.15212
   A64        1.63773  -0.01181   0.00000  -0.01402  -0.01394   1.62378
   A65        1.94647   0.00552   0.00000   0.00595   0.00591   1.95238
   A66        2.14883  -0.00047   0.00000   0.00144   0.00146   2.15029
   A67        2.18789  -0.00506   0.00000  -0.00739  -0.00737   2.18052
   A68        1.94706   0.00212   0.00000   0.00295   0.00295   1.95002
   A69        2.14249  -0.00529   0.00000  -0.00960  -0.00960   2.13289
   A70        2.19363   0.00316   0.00000   0.00665   0.00665   2.20028
   A71        2.11143   0.00441   0.00000   0.00001   0.00002   2.11145
   A72        1.91063  -0.00720   0.00000  -0.01460  -0.01458   1.89605
   A73        1.91063   0.01066   0.00000   0.02146   0.02145   1.93208
   A74        1.91063   0.00164   0.00000   0.00294   0.00288   1.91351
   A75        1.91063  -0.00100   0.00000  -0.00150  -0.00143   1.90920
   A76        1.91063  -0.00049   0.00000  -0.00288  -0.00291   1.90772
   A77        1.91063  -0.00361   0.00000  -0.00542  -0.00552   1.90512
   A78        1.91063  -0.01208   0.00000  -0.02519  -0.02487   1.88576
   A79        1.91063   0.02678   0.00000   0.05403   0.05386   1.96449
   A80        1.91063   0.00585   0.00000   0.01632   0.01608   1.92671
   A81        1.91063  -0.00912   0.00000  -0.02038  -0.02017   1.89046
   A82        1.91063  -0.00013   0.00000  -0.00537  -0.00553   1.90510
   A83        1.91063  -0.01131   0.00000  -0.01940  -0.02028   1.89035
   A84        2.18070   0.08706   0.00000   0.12901   0.12901   2.30971
   A85        1.91063   0.01171   0.00000   0.02333   0.02329   1.93392
   A86        1.91063  -0.00304   0.00000  -0.00657  -0.00657   1.90406
   A87        1.91063   0.00112   0.00000   0.00205   0.00199   1.91262
   A88        1.91063  -0.00401   0.00000  -0.00751  -0.00750   1.90313
   A89        1.91063  -0.00396   0.00000  -0.00615  -0.00624   1.90439
   A90        1.91063  -0.00182   0.00000  -0.00514  -0.00516   1.90548
   A91        1.91063   0.00089   0.00000   0.00163   0.00157   1.91220
   A92        1.91063  -0.00332   0.00000  -0.00715  -0.00715   1.90349
   A93        1.91063   0.01195   0.00000   0.02382   0.02378   1.93442
   A94        1.91063  -0.00164   0.00000  -0.00485  -0.00487   1.90576
   A95        1.91063  -0.00384   0.00000  -0.00585  -0.00595   1.90469
   A96        1.91063  -0.00404   0.00000  -0.00759  -0.00758   1.90306
   A97        2.18175   0.07018   0.00000   0.13488   0.13488   2.31663
   A98        3.14159  -0.01360   0.00000  -0.02811  -0.02810   3.11349
   A99        3.14159   0.01524   0.00000   0.03151   0.03151   3.17310
   A100       3.14159  -0.00376   0.00000  -0.00844  -0.00820   3.13339
   A101       3.14159  -0.00182   0.00000  -0.00408  -0.00408   3.13751
   A102       3.14159  -0.00048   0.00000  -0.00099  -0.00093   3.14066
   A103       3.14159   0.00666   0.00000   0.01377   0.01394   3.15553
    D1        0.00280  -0.00008   0.00000  -0.00028  -0.00029   0.00252
    D2        3.14110  -0.00019   0.00000  -0.00069  -0.00069   3.14040
    D3       -3.13904  -0.00008   0.00000  -0.00028  -0.00028  -3.13932
    D4       -0.00075  -0.00020   0.00000  -0.00069  -0.00069  -0.00144
    D5        0.00002  -0.00003   0.00000  -0.00013  -0.00013  -0.00011
    D6        3.14001  -0.00004   0.00000  -0.00009  -0.00008   3.13992
    D7       -3.14132  -0.00003   0.00000  -0.00014  -0.00014  -3.14146
    D8       -0.00134  -0.00003   0.00000  -0.00009  -0.00009  -0.00143
    D9       -0.00441   0.00018   0.00000   0.00065   0.00065  -0.00376
   D10        3.13748   0.00008   0.00000   0.00027   0.00027   3.13775
   D11        3.14038   0.00029   0.00000   0.00105   0.00105   3.14143
   D12       -0.00091   0.00019   0.00000   0.00066   0.00066  -0.00025
   D13        0.00321  -0.00014   0.00000  -0.00054  -0.00054   0.00267
   D14       -3.14024  -0.00005   0.00000  -0.00017  -0.00017  -3.14041
   D15       -3.13867  -0.00003   0.00000  -0.00016  -0.00017  -3.13884
   D16        0.00106   0.00005   0.00000   0.00021   0.00021   0.00127
   D17       -3.14077   0.00033   0.00000   0.00118   0.00117  -3.13960
   D18        0.00082   0.00007   0.00000   0.00019   0.00019   0.00101
   D19        0.00112   0.00023   0.00000   0.00079   0.00079   0.00190
   D20       -3.14048  -0.00004   0.00000  -0.00020  -0.00019  -3.14067
   D21       -0.00049   0.00003   0.00000   0.00013   0.00013  -0.00036
   D22       -3.14124   0.00004   0.00000   0.00015   0.00015  -3.14109
   D23       -3.14018  -0.00010   0.00000  -0.00030  -0.00029  -3.14048
   D24        0.00225  -0.00009   0.00000  -0.00028  -0.00027   0.00198
   D25       -0.00169  -0.00022   0.00000  -0.00076  -0.00076  -0.00245
   D26        3.13799  -0.00008   0.00000  -0.00031  -0.00032   3.13767
   D27       -0.00117   0.00005   0.00000   0.00020   0.00020  -0.00097
   D28       -3.14112   0.00002   0.00000   0.00011   0.00011  -3.14101
   D29        3.13955   0.00005   0.00000   0.00018   0.00019   3.13974
   D30       -0.00039   0.00002   0.00000   0.00009   0.00009  -0.00030
   D31       -1.04639  -0.00300   0.00000  -0.00930  -0.00931  -1.05570
   D32        1.04801   0.00330   0.00000   0.01044   0.01045   1.05846
   D33        2.09359  -0.00298   0.00000  -0.00923  -0.00925   2.08434
   D34       -2.09520   0.00331   0.00000   0.01050   0.01052  -2.08469
   D35       -0.00007   0.00022   0.00000   0.00079   0.00080   0.00073
   D36       -3.14079   0.00022   0.00000   0.00080   0.00081  -3.13998
   D37       -3.14046   0.00020   0.00000   0.00068   0.00069  -3.13978
   D38        0.00201   0.00020   0.00000   0.00069   0.00069   0.00270
   D39       -0.00033  -0.00025   0.00000  -0.00088  -0.00089  -0.00122
   D40        3.14106  -0.00004   0.00000  -0.00014  -0.00014   3.14092
   D41        3.14003  -0.00020   0.00000  -0.00074  -0.00074   3.13929
   D42       -0.00176   0.00001   0.00000   0.00001   0.00000  -0.00176
   D43        0.00016   0.00008   0.00000   0.00030   0.00030   0.00046
   D44       -3.14020   0.00003   0.00000   0.00014   0.00014  -3.14006
   D45        3.14064   0.00021   0.00000   0.00073   0.00073   3.14137
   D46        0.00113   0.00029   0.00000   0.00101   0.00102   0.00216
   D47       -0.00185   0.00020   0.00000   0.00071   0.00071  -0.00114
   D48       -3.14136   0.00028   0.00000   0.00100   0.00100  -3.14036
   D49       -0.00265  -0.00033   0.00000  -0.00121  -0.00120  -0.00384
   D50        3.13895  -0.00006   0.00000  -0.00022  -0.00022   3.13873
   D51        3.13985  -0.00032   0.00000  -0.00119  -0.00118   3.13868
   D52       -0.00174  -0.00005   0.00000  -0.00020  -0.00020  -0.00194
   D53       -0.00178  -0.00077   0.00000  -0.00272  -0.00272  -0.00450
   D54        3.14084  -0.00012   0.00000  -0.00041  -0.00042   3.14042
   D55       -3.14122  -0.00068   0.00000  -0.00243  -0.00242   3.13954
   D56        0.00140  -0.00004   0.00000  -0.00011  -0.00012   0.00128
   D57        0.00136   0.00074   0.00000   0.00264   0.00264   0.00401
   D58        3.14159   0.00034   0.00000   0.00124   0.00121  -3.14038
   D59       -3.14123   0.00011   0.00000   0.00038   0.00038  -3.14085
   D60       -0.00100  -0.00029   0.00000  -0.00103  -0.00105  -0.00205
   D61       -0.00029  -0.00022   0.00000  -0.00080  -0.00080  -0.00109
   D62        3.14151  -0.00044   0.00000  -0.00157  -0.00156   3.13995
   D63       -3.14049   0.00015   0.00000   0.00058   0.00055  -3.13993
   D64        0.00132  -0.00007   0.00000  -0.00019  -0.00021   0.00111
   D65        1.05069   0.00862   0.00000   0.02876   0.02876   1.07945
   D66       -1.04370  -0.00142   0.00000  -0.00102  -0.00102  -1.04472
   D67       -2.09227   0.00824   0.00000   0.02738   0.02738  -2.06490
   D68        2.09652  -0.00180   0.00000  -0.00240  -0.00240   2.09412
   D69        2.87657  -0.00414   0.00000  -0.01350  -0.01352   2.86305
   D70       -1.31222  -0.00325   0.00000  -0.01113  -0.01126  -1.32347
   D71        0.78218  -0.00014   0.00000  -0.00282  -0.00286   0.77932
   D72       -1.31222   0.00213   0.00000   0.00963   0.00973  -1.30249
   D73        0.78218   0.00302   0.00000   0.01200   0.01199   0.79417
   D74        2.87657   0.00613   0.00000   0.02030   0.02039   2.89696
   D75        1.24897   0.00554   0.00000   0.01942   0.01950   1.26847
   D76       -2.93982   0.00337   0.00000   0.01212   0.01170  -2.92812
   D77       -0.84543   0.00951   0.00000   0.03144   0.03183  -0.81359
   D78       -0.84543  -0.00296   0.00000  -0.00795  -0.00791  -0.85333
   D79        1.24897  -0.00512   0.00000  -0.01525  -0.01571   1.23326
   D80       -2.93982   0.00101   0.00000   0.00407   0.00443  -2.93540
   D81        1.31043   0.00285   0.00000   0.00848   0.00854   1.31897
   D82       -2.87836   0.00325   0.00000   0.00954   0.00955  -2.86881
   D83       -0.78397  -0.00015   0.00000   0.00047   0.00046  -0.78351
   D84       -0.78397  -0.00278   0.00000  -0.01027  -0.01024  -0.79421
   D85        1.31043  -0.00238   0.00000  -0.00921  -0.00924   1.30119
   D86       -2.87836  -0.00578   0.00000  -0.01828  -0.01833  -2.89669
   D87        0.84789   0.00000   0.00000  -0.00117  -0.00115   0.84674
   D88        2.94228  -0.00350   0.00000  -0.01049  -0.01049   2.93179
   D89       -1.24651  -0.00316   0.00000  -0.00958  -0.00965  -1.25615
   D90        2.94228   0.00561   0.00000   0.01755   0.01760   2.95988
   D91       -1.24651   0.00212   0.00000   0.00822   0.00826  -1.23825
   D92        0.84789   0.00246   0.00000   0.00913   0.00910   0.85699
   D93       -0.75013   0.00393   0.00000   0.01151   0.01149  -0.73864
   D94        2.39147   0.00211   0.00000   0.00743   0.00743   2.39889
   D95        0.82067   0.00017   0.00000   0.00364   0.00338   0.82405
   D96       -2.32092   0.00393   0.00000   0.01207   0.01236  -2.30857
   D97       -1.57073  -0.00000   0.00000  -0.00005  -0.00004  -1.57077
   D98        1.57080   0.00005   0.00000   0.00014   0.00014   1.57094
   D99        1.57087  -0.00027   0.00000  -0.00102  -0.00102   1.56985
   D100      -1.57080  -0.00022   0.00000  -0.00083  -0.00084  -1.57163
   D101       3.14101   0.00006   0.00000   0.00022   0.00022   3.14123
   D102      -0.00029  -0.00007   0.00000  -0.00024  -0.00023  -0.00053
   D103      -0.00052   0.00001   0.00000   0.00005   0.00005  -0.00047
   D104       3.14136  -0.00011   0.00000  -0.00040  -0.00040   3.14096
   D105      -3.14132  -0.00004   0.00000  -0.00014  -0.00014  -3.14145
   D106       0.00022   0.00001   0.00000   0.00002   0.00002   0.00024
   D107       0.00063  -0.00003   0.00000  -0.00012  -0.00012   0.00051
   D108      -3.14097  -0.00011   0.00000  -0.00040  -0.00040  -3.14137
   D109      -3.14124   0.00009   0.00000   0.00032   0.00032  -3.14092
   D110       0.00035   0.00001   0.00000   0.00004   0.00004   0.00039
   D111       0.00015  -0.00003   0.00000  -0.00010  -0.00010   0.00006
   D112      -3.14137   0.00010   0.00000   0.00035   0.00035  -3.14102
   D113      -0.00047   0.00004   0.00000   0.00014   0.00014  -0.00033
   D114       3.14105  -0.00009   0.00000  -0.00033  -0.00033   3.14072
   D115       3.14113   0.00012   0.00000   0.00043   0.00043   3.14156
[...]
     32          6           0       -3.605027   -1.705637   -2.443707
     33          1           0       -4.642455   -1.805892   -2.756696
     34          1           0       -2.963118   -2.146540   -3.215339
     35          1           0       -3.475412   -2.222139   -1.490149
     36          6           0       -4.405266    0.681898   -2.323443
     37          1           0       -5.307579    0.157007   -2.630637
     38          1           0       -4.571021    1.102101   -1.330003
     39          1           0       -4.196565    1.472085   -3.053826
     40          6           0        6.649830   -2.871639    0.977608
     41          1           0        6.531751   -2.574915    2.028302
     42          1           0        7.203929   -3.810236    0.950884
     43          1           0        7.252255   -2.110241    0.467428
     44          6           0        4.970073   -4.398296   -0.110070
     45          1           0        4.720648   -4.415547   -1.178298
     46          1           0        5.800309   -5.085617    0.053974
     47          1           0        4.102375   -4.766322    0.453571
     48          9           0       -2.865559   -1.491772    0.592122
     49          9           0       -3.075941   -0.411799    2.628706
     50          9           0       -5.279394    0.117666    2.114906
     51          9           0       -5.050197   -0.958655    0.074293
     52          9           0       -3.573248    0.714844    0.668878
     53          9           0       -4.570300   -2.092017    2.040123
 ---------------------------------------------------------------------
 Rotational constants (GHZ):           0.1580914           0.0694807           0.0578961

 **********************************************************************

            Population analysis using the SCF Density.

 **********************************************************************

 Orbital symmetries:
       Occupied  (A) (A) (A) (A) (A) (A) (A) (A) (A) (A) (A) (A)
                 (A) (A) (A) (A) (A) (A) (A) (A) (A) (A) (A) (A)
                 (A) (A) (A) (A) (A) (A) (A) (A) (A) (A) (A) (A)
                 (A) (A) (A) (A) (A) (A) (A) (A) (A) (A) (A) (A)
                 (A) (A) (A) (A) (A) (A) (A) (A) (A) (A) (A) (A)
                 (A) (A) (A) (A) (A) (A) (A) (A) (A) (A) (A) (A)
                 (A) (A) (A) (A) (A) (A) (A) (A) (A) (A) (A) (A)
                 (A) (A) (A) (A) (A) (A) (A) (A) (A) (A) (A) (A)
                 (A) (A) (A) (A) (A) (A) (A) (A) (A) (A) (A) (A)
                 (A) (A) (A) (A) (A) (A) (A) (A) (A) (A) (A) (A)
                 (A) (A) (A) (A) (A) (A) (A)
       Virtual   (A) (A) (A) (A) (A) (A) (A) (A) (A) (A) (A) (A)
                 (A) (A) (A) (A) (A) (A) (A) (A) (A) (A) (A) (A)
                 (A) (A) (A) (A) (A) (A) (A) (A) (A) (A) (A) (A)
                 (A) (A) (A) (A) (A) (A) (A) (A) (A) (A) (A) (A)
                 (A) (A) (A) (A) (A) (A) (A) (A) (A) (A) (A) (A)
                 (A) (A) (A) (A) (A) (A) (A) (A) (A) (A) (A) (A)
                 (A) (A) (A) (A) (A) (A) (A) (A) (A) (A) (A) (A)
                 (A) (A) (A) (A) (A) (A) (A) (A) (A) (A) (A) (A)
                 (A) (A) (A) (A) (A) (A) (A) (A) (A) (A) (A) (A)
                 (A) (A) (A) (A) (A) (A) (A) (A) (A) (A) (A) (A)
                 (A) (A) (A) (A) (A) (A) (A) (A) (A) (A) (A) (A)
                 (A) (A) (A) (A) (A) (A) (A) (A) (A) (A) (A) (A)
                 (A) (A) (A) (A) (A) (A) (A) (A) (A) (A) (A) (A)
                 (A) (A) (A) (A) (A) (A) (A) (A) (A) (A) (A) (A)
                 (A) (A) (A) (A) (A) (A) (A) (A) (A) (A) (A) (A)
                 (A) (A) (A) (A) (A) (A) (A) (A) (A) (A) (A) (A)
                 (A) (A) (A) (A) (A) (A) (A) (A) (A) (A) (A) (A)
                 (A) (A) (A) (A) (A) (A) (A) (A) (A) (A) (A) (A)
                 (A) (A) (A) (A) (A) (A) (A) (A) (A) (A) (A) (A)
                 (A) (A) (A) (A) (A) (A) (A) (A) (A) (A) (A) (A)
                 (A) (A) (A) (A) (A) (A) (A) (A) (A) (A) (A) (A)
                 (A) (A) (A) (A) (A) (A) (A) (A) (A) (A) (A) (A)
                 (A) (A) (A) (A) (A) (A) (A) (A) (A) (A) (A) (A)
                 (A) (A) (A) (A) (A) (A) (A) (A) (A) (A) (A) (A)
                 (A) (A) (A) (A) (A) (A) (A) (A) (A) (A) (A) (A)
                 (A) (A) (A) (A) (A) (A) (A) (A) (A) (A) (A) (A)
                 (A) (A) (A) (A) (A) (A) (A) (A) (A) (A) (A) (A)
                 (A) (A) (A) (A) (A) (A) (A) (A) (A) (A) (A) (A)
                 (A) (A) (A) (A) (A) (A) (A) (A) (A) (A) (A) (A)
                 (A) (A) (A) (A) (A) (A) (A) (A) (A) (A) (A) (A)
                 (A) (A) (A) (A) (A) (A) (A) (A) (A) (A) (A) (A)
                 (A) (A) (A) (A) (A) (A) (A) (A) (A) (A) (A) (A)
                 (A) (A) (A) (A) (A) (A) (A) (A) (A) (A) (A) (A)
                 (A) (A) (A) (A) (A) (A) (A)
 The electronic state is 1-A.
 Alpha  occ. eigenvalues --  -88.93662 -77.25961 -24.59958 -24.59904 -24.59771
 Alpha  occ. eigenvalues --  -24.59316 -24.59244 -24.59240 -19.24486 -14.40240
 Alpha  occ. eigenvalues --  -14.39131 -10.29638 -10.29019 -10.27639 -10.26736
 Alpha  occ. eigenvalues --  -10.26545 -10.25395 -10.25206 -10.25123 -10.24231
 Alpha  occ. eigenvalues --  -10.23567 -10.23505 -10.23038 -10.22181 -10.22124
 Alpha  occ. eigenvalues --  -10.21958 -10.21822 -10.21733 -10.21402 -10.21376
 Alpha  occ. eigenvalues --  -10.21154 -10.20369  -7.99734  -6.67952  -5.96146
 Alpha  occ. eigenvalues --   -5.95770  -5.95436  -4.84499  -4.84494  -4.84493
 Alpha  occ. eigenvalues --   -1.16836  -1.13849  -1.09336  -1.09321  -1.09278
 Alpha  occ. eigenvalues --   -1.06198  -1.06170  -0.99252  -0.97633  -0.91530
 Alpha  occ. eigenvalues --   -0.89087  -0.88395  -0.83389  -0.80587  -0.78302
 Alpha  occ. eigenvalues --   -0.77392  -0.76009  -0.75936  -0.75657  -0.73137
 Alpha  occ. eigenvalues --   -0.72205  -0.69902  -0.66618  -0.65926  -0.64585
 Alpha  occ. eigenvalues --   -0.61937  -0.59071  -0.58030  -0.57674  -0.57164
 Alpha  occ. eigenvalues --   -0.56445  -0.54549  -0.53451  -0.52666  -0.52053
 Alpha  occ. eigenvalues --   -0.51506  -0.50338  -0.50125  -0.49030  -0.47846
 Alpha  occ. eigenvalues --   -0.47453  -0.46945  -0.46222  -0.46062  -0.45974
 Alpha  occ. eigenvalues --   -0.45886  -0.44966  -0.44511  -0.44438  -0.43952
 Alpha  occ. eigenvalues --   -0.43583  -0.42823  -0.42371  -0.41991  -0.41574
 Alpha  occ. eigenvalues --   -0.41198  -0.40642  -0.40337  -0.40173  -0.39840
 Alpha  occ. eigenvalues --   -0.38767  -0.38712  -0.38006  -0.37777  -0.37683
 Alpha  occ. eigenvalues --   -0.37070  -0.36979  -0.35735  -0.35704  -0.35482
 Alpha  occ. eigenvalues --   -0.34940  -0.32094  -0.31217  -0.31185  -0.31070
 Alpha  occ. eigenvalues --   -0.30847  -0.30758  -0.30522  -0.29200  -0.27786
 Alpha  occ. eigenvalues --   -0.27620  -0.27439  -0.27375  -0.27234  -0.25379
 Alpha  occ. eigenvalues --   -0.24316  -0.21450
 Alpha virt. eigenvalues --   -0.11461  -0.04414  -0.03456  -0.02075  -0.00793
 Alpha virt. eigenvalues --    0.00499   0.03237   0.04465   0.05633   0.07329
 Alpha virt. eigenvalues --    0.07902   0.08589   0.09201   0.09487   0.09962
 Alpha virt. eigenvalues --    0.10519   0.11763   0.12096   0.12975   0.13013
 Alpha virt. eigenvalues --    0.13566   0.14090   0.14186   0.14348   0.14901
 Alpha virt. eigenvalues --    0.15295   0.15694   0.15835   0.16399   0.16769
 Alpha virt. eigenvalues --    0.17447   0.17708   0.18213   0.19568   0.19957
 Alpha virt. eigenvalues --    0.20284   0.20876   0.21767   0.22419   0.23062
 Alpha virt. eigenvalues --    0.24253   0.25130   0.25520   0.26286   0.28318
 Alpha virt. eigenvalues --    0.29039   0.30285   0.30548   0.31031   0.31402
 Alpha virt. eigenvalues --    0.31901   0.32506   0.32789   0.33891   0.35654
 Alpha virt. eigenvalues --    0.36044   0.36795   0.37743   0.39010   0.40016
 Alpha virt. eigenvalues --    0.40794   0.41727   0.41887   0.42353   0.43353
 Alpha virt. eigenvalues --    0.43694   0.43793   0.45670   0.45747   0.46791
 Alpha virt. eigenvalues --    0.47460   0.48284   0.48790   0.49928   0.50474
 Alpha virt. eigenvalues --    0.50986   0.51447   0.52046   0.52572   0.53034
 Alpha virt. eigenvalues --    0.53465   0.53823   0.54467   0.54727   0.55511
 Alpha virt. eigenvalues --    0.55594   0.56778   0.56816   0.56983   0.57515
 Alpha virt. eigenvalues --    0.57962   0.58468   0.58895   0.59360   0.60287
 Alpha virt. eigenvalues --    0.60812   0.61686   0.62955   0.63213   0.64149
 Alpha virt. eigenvalues --    0.64159   0.65837   0.66263   0.66377   0.66492
 Alpha virt. eigenvalues --    0.66722   0.67909   0.68340   0.69956   0.70434
 Alpha virt. eigenvalues --    0.70845   0.71273   0.72233   0.75459   0.76186
 Alpha virt. eigenvalues --    0.76466   0.77739   0.78015   0.78402   0.78842
 Alpha virt. eigenvalues --    0.79752   0.80842   0.81117   0.81233   0.81851
 Alpha virt. eigenvalues --    0.82344   0.83031   0.83565   0.83604   0.84496
 Alpha virt. eigenvalues --    0.84917   0.85163   0.85593   0.86031   0.86490
 Alpha virt. eigenvalues --    0.87326   0.87522   0.88465   0.89084   0.89746
 Alpha virt. eigenvalues --    0.90557   0.91128   0.91583   0.92086   0.92445
 Alpha virt. eigenvalues --    0.93209   0.93490   0.95001   0.95294   0.96082
 Alpha virt. eigenvalues --    0.97386   0.97794   0.98407   0.98793   0.99779
 Alpha virt. eigenvalues --    1.00349   1.01430   1.02002   1.02677   1.03731
 Alpha virt. eigenvalues --    1.03916   1.04825   1.06173   1.07160   1.07615
 Alpha virt. eigenvalues --    1.08305   1.10315   1.10911   1.13763   1.14151
 Alpha virt. eigenvalues --    1.14707   1.15374   1.16114   1.16863   1.18881
 Alpha virt. eigenvalues --    1.20789   1.21097   1.21989   1.22191   1.23598
 Alpha virt. eigenvalues --    1.24595   1.25245   1.25406   1.25826   1.27750
 Alpha virt. eigenvalues --    1.28186   1.28532   1.28792   1.30212   1.30947
 Alpha virt. eigenvalues --    1.31321   1.31698   1.32961   1.33697   1.34285
 Alpha virt. eigenvalues --    1.34684   1.35408   1.36050   1.36815   1.37392
 Alpha virt. eigenvalues --    1.37483   1.38675   1.40056   1.40955   1.42253
 Alpha virt. eigenvalues --    1.42463   1.43523   1.45138   1.45380   1.46717
 Alpha virt. eigenvalues --    1.47069   1.47495   1.48177   1.49641   1.50658
 Alpha virt. eigenvalues --    1.51453   1.52126   1.55048   1.55184   1.55838
 Alpha virt. eigenvalues --    1.57131   1.58595   1.59450   1.60225   1.61446
 Alpha virt. eigenvalues --    1.62239   1.64026   1.64573   1.65737   1.66720
 Alpha virt. eigenvalues --    1.67524   1.68347   1.71726   1.74362   1.74813
 Alpha virt. eigenvalues --    1.77921   1.78231   1.78801   1.79731   1.79891
 Alpha virt. eigenvalues --    1.81205   1.81598   1.81888   1.83384   1.84039
 Alpha virt. eigenvalues --    1.84601   1.85085   1.86495   1.86933   1.87417
 Alpha virt. eigenvalues --    1.88657   1.88891   1.89599   1.90290   1.90842
 Alpha virt. eigenvalues --    1.91238   1.92523   1.93189   1.93383   1.94003
 Alpha virt. eigenvalues --    1.94307   1.94380   1.94792   1.95187   1.96537
 Alpha virt. eigenvalues --    1.96656   1.97213   1.98237   1.98526   1.99220
 Alpha virt. eigenvalues --    2.00024   2.00749   2.01319   2.01871   2.02922
 Alpha virt. eigenvalues --    2.03171   2.04012   2.04140   2.04752   2.06473
 Alpha virt. eigenvalues --    2.06808   2.07221   2.07399   2.07770   2.09606
 Alpha virt. eigenvalues --    2.09888   2.10021   2.10426   2.10846   2.11453
 Alpha virt. eigenvalues --    2.11555   2.11623   2.12123   2.12609   2.13390
 Alpha virt. eigenvalues --    2.15144   2.15786   2.17014   2.17342   2.17960
 Alpha virt. eigenvalues --    2.18954   2.20882   2.21803   2.21980   2.22824
 Alpha virt. eigenvalues --    2.23103   2.23596   2.24367   2.25846   2.26065
 Alpha virt. eigenvalues --    2.26232   2.27170   2.27507   2.28735   2.29364
 Alpha virt. eigenvalues --    2.29816   2.30317   2.31830   2.32618   2.33112
 Alpha virt. eigenvalues --    2.33836   2.34003   2.35343   2.36737   2.37426
 Alpha virt. eigenvalues --    2.39706   2.41355   2.41914   2.46672   2.49523
 Alpha virt. eigenvalues --    2.51089   2.51823   2.54236   2.55052   2.56011
 Alpha virt. eigenvalues --    2.57379   2.57573   2.58819   2.58898   2.60588
 Alpha virt. eigenvalues --    2.62212   2.65680   2.66721   2.67272   2.69132
 Alpha virt. eigenvalues --    2.69749   2.70910   2.71449   2.71740   2.74539
 Alpha virt. eigenvalues --    2.75037   2.79095   2.81093   2.82272   2.83646
 Alpha virt. eigenvalues --    2.85261   2.87392   2.88247   2.91779   2.95301
 Alpha virt. eigenvalues --    2.99847   3.02634   3.06232   3.09454   3.12873
 Alpha virt. eigenvalues --    3.16723   3.16891   3.19928   3.33031   3.47126
 Alpha virt. eigenvalues --    3.48381   3.91930   3.98878   3.99599   4.02287
 Alpha virt. eigenvalues --    4.04171   4.06009   4.07318   4.09683   4.09804
 Alpha virt. eigenvalues --    4.11008   4.13699   4.15128   4.17958   4.18501
 Alpha virt. eigenvalues --    4.22033   4.24122   4.29803   4.29937   4.32863
 Alpha virt. eigenvalues --    4.33263   4.36261   4.38785   4.44595   4.46318
 Alpha virt. eigenvalues --    4.54228   4.65223   4.70610   4.83596   4.86009
 Alpha virt. eigenvalues --    4.88507   4.90598   5.67562
          Condensed to atoms (all electrons):
 Mulliken charges:
               1
     1  C   -0.185441
     2  C   -0.201233
     3  C    0.087402
     4  C    0.326782
     5  C   -0.277909
     6  C    0.399651
     7  C    0.335396
     8  C    0.098765
     9  C   -0.188284
    10  H    0.165638
    11  C   -0.142497
    12  C    0.445573
    13  C   -0.252885
    14  H    0.145055
    15  H    0.170970
    16  H    0.159010
    17  H    0.162248
    18  H    0.167592
    19  N   -0.461935
    20  N   -0.480562
    21  P    1.441334
    22  C    0.087009
    23  C   -0.275446
    24  C   -0.099608
    25  S    0.278412
    26  C   -0.100531
    27  H    0.188953
    28  C   -0.333152
    29  H    0.162376
    30  H    0.186102
    31  O   -0.540775
    32  C   -0.331455
    33  H    0.174110
    34  H    0.150352
    35  H    0.235988
    36  C   -0.335251
    37  H    0.175465
    38  H    0.236600
    39  H    0.150767
    40  C   -0.322149
    41  H    0.175729
    42  H    0.171379
    43  H    0.174438
    44  C   -0.320782
    45  H    0.175392
    46  H    0.170488
    47  H    0.179895
    48  F   -0.407330
    49  F   -0.369402
    50  F   -0.365648
    51  F   -0.412025
    52  F   -0.409320
    53  F   -0.365253
 Sum of Mulliken charges =  -0.00000
 Mulliken charges with hydrogens summed into heavy atoms:
               1
     1  C   -0.040386
     2  C   -0.030263
     3  C    0.087402
     4  C    0.326782
     5  C   -0.118899
     6  C    0.399651
     7  C    0.335396
     8  C    0.098765
     9  C   -0.022645
    11  C    0.019751
    12  C    0.445573
    13  C   -0.085293
    19  N   -0.461935
    20  N   -0.480562
    21  P    1.441334
    22  C    0.087009
    23  C   -0.275446
    24  C    0.089346
    25  S    0.278412
    26  C    0.061845
    28  C   -0.147051
    31  O   -0.540775
    32  C    0.228995
    36  C    0.227581
    40  C    0.199397
    44  C    0.204994
    48  F   -0.407330
    49  F   -0.369402
    50  F   -0.365648
    51  F   -0.412025
    52  F   -0.409320
    53  F   -0.365253
 Electronic spatial extent (au):  <R**2>=          18504.0567
 Charge=              0.0000 electrons
 Dipole moment (field-independent basis, Debye):
    X=             17.5414    Y=              1.2920    Z=             -7.5013  Tot=             19.1217
 Quadrupole moment (field-independent basis, Debye-Ang):
   XX=           -188.8602   YY=           -157.0009   ZZ=           -198.2295
   XY=            -27.9287   XZ=             44.2506   YZ=              9.8862
 Traceless Quadrupole moment (field-independent basis, Debye-Ang):
   XX=             -7.4967   YY=             24.3626   ZZ=            -16.8660
   XY=            -27.9287   XZ=             44.2506   YZ=              9.8862
 Octapole moment (field-independent basis, Debye-Ang**2):
  XXX=            327.5677  YYY=            -16.1664  ZZZ=             17.6194  XYY=             99.6314
  XXY=            -94.1226  XXZ=            -98.9762  XZZ=            -44.5876  YZZ=             -9.8250
  YYZ=             24.7619  XYZ=            -25.9031
 Hexadecapole moment (field-independent basis, Debye-Ang**3):
 XXXX=         -14066.3437 YYYY=          -5164.3022 ZZZZ=          -2231.0691 XXXY=           -939.8770
 XXXZ=            811.0982 YYYX=           -108.2349 YYYZ=            135.5223 ZZZX=            -37.7261
 ZZZY=             13.4349 XXYY=          -2804.8988 XXZZ=          -2897.5190 YYZZ=          -1355.3407
 XXYZ=            -11.7052 YYXZ=             60.9431 ZZXY=             -7.4878
 N-N= 3.837031296016D+03 E-N=-1.317537225536D+04  KE= 2.319831841591D+03
 Unable to Open any file for archive entry.
 1\1\GINC-BHD0001\FOpt\RB3LYP\6-31G(d)\C21H21F6N2O1P1S1\BWEIGHT\05-Jan-
 2023\0\\# OPT B3LYP/6-31G*\\Title Card Required\\0,1\C,-0.5894249681,0
 .1211932102,0.0607890046\C,0.7612433375,0.1108150487,0.3137672356\C,1.
 611318268,1.1798586985,-0.071459257\C,0.9701044727,2.2826839425,-0.693
 2074474\C,-0.3888995803,2.3156608466,-0.9615753234\C,-1.2096083693,1.2
 266168856,-0.6001597458\C,3.0043808891,3.4983247746,-0.7905387475\C,3.
 718752013,2.3975773467,-0.2066582415\C,5.1315926921,2.5906881295,-0.05
 88422425\H,5.7271206027,1.7739311106,0.329612436\C,5.7354350862,3.7674
 095041,-0.3755648979\C,4.9811027277,4.8882802241,-0.8817762814\C,3.594
 4933443,4.6883181576,-1.1236376885\H,-1.1858794557,-0.7208880872,0.387
 2930749\H,1.1882933568,-0.735618412,0.8376912406\H,-0.7851483404,3.206
 2300098,-1.4300869503\H,6.7986963465,3.8725493113,-0.2118054569\H,2.96
 61127221,5.4799202501,-1.5047502793\N,5.5775975766,6.0591205374,-1.147
 4632773\N,-2.5526550911,1.2334149074,-0.8579065546\P,4.7303971404,6.90
 13479443,2.4246635905\C,3.0213243988,1.2423777019,0.1710383902\C,3.731
 6648124,0.1386427469,0.8382142985\C,4.4682812118,0.2046412558,1.999841
 6413\S,3.7734518548,-1.4902010668,0.1820957015\C,5.0544168707,-1.03935
 24049,2.3712001535\H,4.5652916594,1.1176884116,2.5774444886\C,4.775497
 9236,-2.0415355347,1.4826991705\H,5.6587221432,-1.1776660614,3.2606655
 183\H,5.1030439938,-3.07242655,1.5089004856\O,1.6678927199,3.393653811
 ,-1.0444498009\C,4.7708825313,7.2150109837,-1.552383281\H,5.4277499662
 ,8.0730931847,-1.6807971117\H,4.2673025771,7.0147840252,-2.505365187\H
 ,4.0436750922,7.4445302206,-0.7705017428\C,6.982929629,6.2813283778,-0
 .7841026775\H,7.243188902,7.3108161285,-1.0217329043\H,7.1141237128,6.
 1303954576,0.2887326938\H,7.6385352372,5.615485331,-1.3570289398\C,-3.
 3957207073,0.1255428983,-0.4240742833\H,-3.4006828321,0.0177335711,0.6
 687656796\H,-4.4193995997,0.3097561608,-0.7509564248\H,-3.06694523,-0.
 8233361554,-0.8650521703\C,-3.1689750027,2.4002775621,-1.4773901726\H,
 -2.7266494507,2.6078862483,-2.4596667677\H,-4.2330696418,2.2102768979,
 -1.619571312\H,-3.0601504752,3.2969196533,-0.852709888\F,3.6157165123,
 6.4950770862,1.268272757\F,3.9647643998,5.9456383714,3.4896594063\F,5.
 8617390145,7.287348065,3.5184840173\F,5.504853383,7.820094464,1.290499
 7964\F,5.6500625776,5.6079996558,1.9393910056\F,3.8237197554,8.1753246
 421,2.8483503888\\Version=ES64L-G16RevC.01\State=1-A\HF=-2336.3368525\
 RMSD=6.231e-09\RMSF=5.259e-06\Dipole=-3.0698587,-5.5766352,-4.0091606\
 Quadrupole=33.8869859,-15.8117173,-18.0752685,0.5498921,-1.9957833,-30
 .9664243\PG=C01 [X(C21H21F6N2O1P1S1)]\\@
 The archive entry for this job was punched.


 NO MATTER HOW THIN YOU SLICE IT, IT'S STILL BALONEY

                                   -- ALFRED E. SMITH
 Job cpu time:       0 days 16 hours  8 minutes 49.8 seconds.
 Elapsed time:       0 days  4 hours  2 minutes 40.6 seconds.
 File lengths (MBytes):  RWF=    416 Int=      0 D2E=      0 Chk=     48 Scr=     32
 Normal termination of Gaussian 16 at Thu Jan  5 05:07:16 2023.
