 Entering Gaussian System, Link 0=g16
 Initial command:
 /software/gaussian/g16-c01/avx/g16/l1.exe "/gpfs/fs2/scratch/bweight/software/SQD/src/NAMD/TEST_POP_FULL/G16/TD_NEW_S1/Gau-21374.inp" -scrdir="/gpfs/fs2/scratch/bweight/software/SQD/src/NAMD/TEST_POP_FULL/G16/TD_NEW_S1/"
 Entering Link 1 = /software/gaussian/g16-c01/avx/g16/l1.exe PID=     21375.
  
 Copyright (c) 1988-2019, Gaussian, Inc.  All Rights Reserved.
  
 This is part of the Gaussian(R) 16 program.  It is based on
 the Gaussian(R) 09 system (copyright 2009, Gaussian, Inc.),
 the Gaussian(R) 03 system (copyright 2003, Gaussian, Inc.),
 the Gaussian(R) 98 system (copyright 1998, Gaussian, Inc.),
 the Gaussian(R) 94 system (copyright 1995, Gaussian, Inc.),
 the Gaussian 92(TM) system (copyright 1992, Gaussian, Inc.),
 the Gaussian 90(TM) system (copyright 1990, Gaussian, Inc.),
 the Gaussian 88(TM) system (copyright 1988, Gaussian, Inc.),
 the Gaussian 86(TM) system (copyright 1986, Carnegie Mellon
 University), and the Gaussian 82(TM) system (copyright 1983,
 Carnegie Mellon University). Gaussian is a federally registered
 trademark of Gaussian, Inc.
  
 This software contains proprietary and confidential information,
 including trade secrets, belonging to Gaussian, Inc.
  
 This software is provided under written license and may be
 used, copied, transmitted, or stored only in accord with that
 written license.
  
 The following legend is applicable only to US Government
 contracts under FAR:
  
                    RESTRICTED RIGHTS LEGEND
  
 Use, reproduction and disclosure by the US Government is
 subject to restrictions as set forth in subparagraphs (a)
 and (c) of the Commercial Computer Software - Restricted
 Rights clause in FAR 52.227-19.
  
 Gaussian, Inc.
 340 Quinnipiac St., Bldg. 40, Wallingford CT 06492
  
  
 ---------------------------------------------------------------
 Warning -- This program may not be used in any manner that
 competes with the business of Gaussian, Inc. or will provide
 assistance to any competitor of Gaussian, Inc.  The licensee
 of this program is prohibited from giving any competitor of
 Gaussian, Inc. access to this program.  By using this program,
 the user acknowledges that Gaussian, Inc. is engaged in the
 business of creating and licensing software in the field of
 computational chemistry and represents and warrants to the
 licensee that it is not a competitor of Gaussian, Inc. and that
 it will not use this program in any manner prohibited above.
 ---------------------------------------------------------------
  

 Cite this work as:
 Gaussian 16, Revision C.01,
 M. J. Frisch, G. W. Trucks, H. B. Schlegel, G. E. Scuseria, 
 M. A. Robb, J. R. Cheeseman, G. Scalmani, V. Barone, 
 G. A. Petersson, H. Nakatsuji, X. Li, M. Caricato, A. V. Marenich, 
 J. Bloino, B. G. Janesko, R. Gomperts, B. Mennucci, H. P. Hratchian, 
 J. V. Ortiz, A. F. Izmaylov, J. L. Sonnenberg, D. Williams-Young, 
 F. Ding, F. Lipparini, F. Egidi, J. Goings, B. Peng, A. Petrone, 
 T. Henderson, D. Ranasinghe, V. G. Zakrzewski, J. Gao, N. Rega, 
 G. Zheng, W. Liang, M. Hada, M. Ehara, K. Toyota, R. Fukuda, 
 J. Hasegawa, M. Ishida, T. Nakajima, Y. Honda, O. Kitao, H. Nakai, 
 T. Vreven, K. Throssell, J. A. Montgomery, Jr., J. E. Peralta, 
 F. Ogliaro, M. J. Bearpark, J. J. Heyd, E. N. Brothers, K. N. Kudin, 
 V. N. Staroverov, T. A. Keith, R. Kobayashi, J. Normand, 
 K. Raghavachari, A. P. Rendell, J. C. Burant, S. S. Iyengar, 
 J. Tomasi, M. Cossi, J. M. Millam, M. Klene, C. Adamo, R. Cammi, 
 J. W. Ochterski, R. L. Martin, K. Morokuma, O. Farkas, 
 J. B. Foresman, and D. J. Fox, Gaussian, Inc., Wallingford CT, 2019.
 
 ******************************************
 Gaussian 16:  ES64L-G16RevC.01  3-Jul-2019
                 2-Feb-2023 
 ******************************************
 %oldchk=../GS_NEW/geometry.chk
 %chk=geometry.chk
 %nprocshared=12
 Will use up to   12 processors via shared memory.
 %mem=30GB
 Copying data from "../GS_NEW/geometry.chk" to current chk file "geometry.chk"
 IOpt=  2 FromEx=T IUOpen= 4 IOptOp= 5 NList=   0 IFRang= 0 IUIn= 4 IUOut= 2.
 ----------------------------------------------------------------------
 # AM1/STO-5G SCF=XQC TD=(singlets,nstates=4,root=1) nosym IOp(9/40=3) 
 guess=read
 ----------------------------------------------------------------------
 1/38=1,172=1/1;
 2/12=2,15=1,17=6,18=5,40=1/2;
 3/5=2,6=5,25=1,41=700000,116=-2/1,2,3,8;
 4/5=1,35=1/1;
 5/5=2,8=3,13=1,35=1,38=6/2,8;
 8/6=1,10=90,107=1,108=4/1;
 9/8=1,40=3,41=4,42=1,48=1,49=10,70=2/14;
 6/7=2,8=2,9=2,10=2/1;
 99/5=1,9=1/99;
 ---------
 MD Step 3
 ---------
 Symbolic Z-matrix:
 Charge =  0 Multiplicity = 1
 C                    -1.03749  -1.17193   0.00173 
 C                     0.31491  -1.13813   0.00275 
 C                     1.00844   0.00028  -0.00156 
 C                     0.31475   1.13843  -0.0024 
 C                    -1.03761   1.17191  -0.00082 
 C                    -1.74509  -0.00001   0.0006 
 H                    -1.6732   -2.05366   0.00397 
 H                     0.7752   -2.1061    0.00521 
 H                     0.77491   2.10642  -0.00293 
 H                    -1.67367   2.05326  -0.00007 
 N                     2.34544   0.00018  -0.00492 
 C                     3.09795  -1.23123  -0.00051 
 H                     4.14094  -1.02744  -0.00183 
 H                     2.8363   -1.83312   0.86181 
 H                     2.83545  -1.83861  -0.85932 
 C                     3.09873   1.23083   0.00472 
 H                     4.14149   1.02662  -0.01478 
 H                     2.82406   1.84701  -0.84455 
 H                     2.84967   1.8248    0.87607 
 C                    -3.20213  -0.0003    0.00007 
 N                    -4.32533   0.00001  -0.00071 
 
                          Input orientation:                          
 ---------------------------------------------------------------------
 Center     Atomic      Atomic             Coordinates (Angstroms)
 Number     Number       Type             X           Y           Z
 ---------------------------------------------------------------------
      1          6           0       -1.037488   -1.171934    0.001729
      2          6           0        0.314912   -1.138130    0.002746
      3          6           0        1.008436    0.000276   -0.001556
      4          6           0        0.314748    1.138433   -0.002400
      5          6           0       -1.037611    1.171905   -0.000820
      6          6           0       -1.745088   -0.000009    0.000598
      7          1           0       -1.673196   -2.053663    0.003968
      8          1           0        0.775204   -2.106096    0.005207
      9          1           0        0.774912    2.106416   -0.002931
     10          1           0       -1.673671    2.053258   -0.000074
     11          7           0        2.345442    0.000178   -0.004920
     12          6           0        3.097952   -1.231232   -0.000507
     13          1           0        4.140938   -1.027442   -0.001831
     14          1           0        2.836296   -1.833119    0.861807
     15          1           0        2.835454   -1.838612   -0.859321
     16          6           0        3.098731    1.230832    0.004717
     17          1           0        4.141492    1.026616   -0.014784
     18          1           0        2.824061    1.847010   -0.844548
     19          1           0        2.849667    1.824804    0.876069
     20          6           0       -3.202133   -0.000295    0.000073
     21          7           0       -4.325332    0.000014   -0.000705
 ---------------------------------------------------------------------
                    Distance matrix (angstroms):
                    1          2          3          4          5
     1  C    0.000000
     2  C    1.352823   0.000000
     3  C    2.357942   1.333028   0.000000
     4  C    2.677004   2.276569   1.332893   0.000000
     5  C    2.343840   2.676863   2.357759   1.352775   0.000000
     6  C    1.368980   2.353492   2.753524   2.353504   1.368907
     7  H    1.087004   2.188784   3.377846   3.760510   3.287595
     8  H    2.039246   1.071836   2.119256   3.277048   3.745881
     9  H    3.745983   3.276997   2.119047   1.071793   2.039253
    10  H    3.287338   3.760244   3.377638   2.188772   1.086902
    11  N    3.580238   2.327844   1.337010   2.327949   3.580225
    12  C    4.135865   2.784598   2.425425   3.655343   4.783090
    13  H    5.180442   3.827629   3.296782   4.396674   5.626233
    14  H    4.022823   2.752884   2.729067   3.991889   4.978098
    15  H    4.023126   2.754445   2.730433   3.993879   4.980047
    16  C    4.783472   3.655357   2.425622   2.785525   4.136766
    17  H    5.626342   4.396493   3.296906   3.828397   5.181159
    18  H    4.974109   3.990589   2.723519   2.740063   4.010007
    19  H    4.985467   3.995830   2.736651   2.769228   4.038087
    20  C    2.461388   3.696523   4.210570   3.696642   2.461546
    21  N    3.490471   4.777787   5.333768   4.777692   3.490334
                    6          7          8          9         10
     6  C    0.000000
     7  H    2.054914   0.000000
     8  H    3.284432   2.448962   0.000000
     9  H    3.284423   4.826959   4.212520   0.000000
    10  H    2.054509   4.106923   4.826722   2.449161   0.000000
    11  N    4.090533   4.513069   2.627192   2.627319   4.513140
    12  C    4.997093   4.841515   2.482051   4.066499   5.792776
    13  H    5.975025   5.904008   3.534361   4.599043   6.580303
    14  H    5.009097   4.595655   2.248640   4.529571   6.015527
    15  H    5.010118   4.595589   2.250241   4.532382   6.018070
    16  C    4.997756   5.793030   4.066186   2.483313   4.842751
    17  H    5.975451   6.580203   4.598498   3.535529   5.905110
    18  H    5.000287   6.013364   4.532874   2.230386   4.580968
    19  H    5.020773   6.021575   4.529214   2.270805   4.613069
    20  C    1.457046   2.560075   4.500404   4.500569   2.559937
    21  N    2.580245   3.354316   5.518260   5.518099   3.353672
                   11         12         13         14         15
    11  N    0.000000
    12  C    1.443142   0.000000
    13  H    2.068772   1.062710   0.000000
    14  H    2.086416   1.083659   1.759851   0.000000
    15  H    2.085968   1.084149   1.759993   1.721137   0.000000
    16  C    1.442930   2.462069   2.487175   3.192377   3.199588
    17  H    2.068687   2.487379   2.054100   3.263439   3.260140
    18  H    2.084428   3.203591   3.272127   4.056494   3.685669
    19  H    2.087977   3.188947   3.251676   3.657975   4.053690
    20  C    5.547577   6.419211   7.414562   6.369023   6.369492
    21  N    6.670775   7.524699   8.528387   7.442662   7.442756
                   16         17         18         19         20
    16  C    0.000000
    17  H    1.062748   0.000000
    18  H    1.084606   1.759880   0.000000
    19  H    1.083555   1.760549   1.720951   0.000000
    20  C    6.420015   7.415092   6.359319   6.381430   0.000000
    21  N    7.525401   8.528846   7.432179   7.455146   1.123199
                   21
    21  N    0.000000
 Symmetry turned off by external request.
 Stoichiometry    C9H10N2
 Framework group  C1[X(C9H10N2)]
 Deg. of freedom    57
 Full point group                 C1      NOp   1
 Rotational constants (GHZ):           3.7005157           0.5971985           0.5173573
 Standard basis: VSTO-5G (5D, 7F)
    54 basis functions,   324 primitive gaussians,    54 cartesian basis functions
    28 alpha electrons       28 beta electrons
       nuclear repulsion energy       316.2883839508 Hartrees.
 Integral buffers will be    131072 words long.
 Regular integral format.
 Two-electron integral symmetry is turned off.
 Do NDO integrals.
 One-electron integrals computed using PRISM.
 NBasis=    54 RedAO= F EigKep=  0.00D+00  NBF=    54
 NBsUse=    54 1.00D-04 EigRej=  0.00D+00 NBFU=    54
 Initial guess from the checkpoint file:  "geometry.chk"
 B after Tr=     0.000000    0.000000    0.000000
         Rot=    1.000000    0.000000    0.000000    0.000000 Ang=   0.00 deg.
 Keep J ints in memory in canonical form, NReq=867381.
 Overlap will be assumed to be unity.
 Requested convergence on RMS density matrix=1.00D-08 within  32 cycles.
 Requested convergence on MAX density matrix=1.00D-06.
 Requested convergence on             energy=1.00D-06.
 No special actions if energy rises.
 SCF Done:  E(RAM1) =  0.154602214577     A.U. after    2 cycles
            NFock=  1  Conv=0.11D-08     -V/T= 1.0016
 QCSCF skips out because SCF is already converged.
 Range of M.O.s used for correlation:     1    54
 NBasis=    54 NAE=    28 NBE=    28 NFC=     0 NFV=     0
 NROrb=     54 NOA=    28 NOB=    28 NVA=    26 NVB=    26
 Keep J ints in memory in canonical form, NReq=867721.
    16 initial guesses have been made.
 Convergence on wavefunction:    0.001000000000000
 Iteration     1 Dimension    16 NMult     0 NNew     16
 CISAX will form    16 AO SS matrices at one time.
 New state      1 was old state      2
 New state      2 was old state      1
 New state      3 was old state      4
 New state      4 was old state      5
 Iteration     2 Dimension    24 NMult    16 NNew      8
 Iteration     3 Dimension    32 NMult    24 NNew      8
 Iteration     4 Dimension    40 NMult    32 NNew      8
 Iteration     5 Dimension    48 NMult    40 NNew      8
 Iteration     6 Dimension    52 NMult    48 NNew      4
 ***********************************************************************
 Excited states from <AA,BB:AA,BB> singles matrix:
 ***********************************************************************
 
 Ground to excited state transition densities written to RWF  633
 Ground to excited state transition electric dipole moments (Au):
       state          X           Y           Z        Dip. S.      Osc.
         1         0.0012      0.4159     -0.0009      0.1730      0.0155
         2         1.5528      0.0000     -0.0084      2.4111      0.2206
         3        -0.0632      0.0020     -0.1626      0.0305      0.0029
         4         1.7515     -0.0003      0.0018      3.0677      0.3878
 Ground to excited state transition velocity dipole moments (Au):
       state          X           Y           Z        Dip. S.      Osc.
         1        -0.0002     -0.0856     -0.0001      0.0073      0.0364
         2        -0.2721      0.0000      0.0070      0.0741      0.3598
         3         0.0111     -0.0009      0.1489      0.0223      0.1057
         4        -0.4509      0.0001     -0.0003      0.2033      0.7148
 Ground to excited state transition magnetic dipole moments (Au):
       state          X           Y           Z
         1         0.0002      0.0039      0.4266
         2         0.0000     -0.0346     -0.0002
         3         0.0000     -0.7780     -0.0013
         4         0.0027     -0.0016     -0.0003
 Ground to excited state transition velocity quadrupole moments (Au):
       state          XX          YY          ZZ          XY          XZ          YZ
         1         0.0001     -0.0001     -0.0000     -0.0790     -0.0034     -0.0005
         2        -0.0026     -0.0203     -0.0475     -0.0002      0.0347     -0.0004
         3        -0.0051      0.0013     -0.0020     -0.0032      0.7786      0.0001
         4        -0.2316      0.1660     -0.0505     -0.0002      0.0010      0.0018
 <0|del|b> * <b|rxdel|0> + <0|del|b> * <b|delr+rdel|0>
 Rotatory Strengths (R) in cgs (10**-40 erg-esu-cm/Gauss)
       state          XX          YY          ZZ    R(velocity)    E-M Angle
         1        -1.7536     -0.1642     -0.1281     -0.6820       90.61
         2        -0.0064      0.2702     -0.3211     -0.0191       90.00
         3         1.7665      0.6963     -0.0020      0.8203       89.76
         4        -0.0004     -3.7527     -0.7088     -1.4873      148.58
 1/2[<0|r|b>*<b|rxdel|0> + (<0|rxdel|b>*<b|r|0>)*]
 Rotatory Strengths (R) in cgs (10**-40 erg-esu-cm/Gauss)
       state          XX          YY          ZZ     R(length)
         1        -0.0002     -1.1528      0.2610     -0.2973
         2        -0.0403      0.0002     -0.0009     -0.0137
         3         0.0022      1.1024     -0.1547      0.3166
         4        -3.2861     -0.0003      0.0003     -1.0954
  1/2[<0|del|b>*<b|r|0> + (<0|r|b>*<b|del|0>)*] (Au)
       state          X           Y           Z        Dip. S.   Osc.(frdel)
         1        -0.0000     -0.0356      0.0000      0.0356      0.0237
         2        -0.4224      0.0000     -0.0001      0.4225      0.2817
         3        -0.0007     -0.0000     -0.0242      0.0249      0.0166
         4        -0.7897     -0.0000     -0.0000      0.7897      0.5265

 Excitation energies and oscillator strengths:
 
 Excited state symmetry could not be determined.
 Excited State   1:      Singlet-?Sym    3.6515 eV  339.54 nm  f=0.0155  <S**2>=0.000
       4 -> 39        -0.00218
       4 -> 42        -0.00189
       4 -> 46        -0.00325
       5 -> 36        -0.00102
       5 -> 45         0.00122
       5 -> 48        -0.00181
       6 -> 46        -0.00104
       7 -> 48        -0.00175
       8 -> 39         0.00449
       8 -> 42         0.00189
       8 -> 46         0.00213
       8 -> 51        -0.00141
       9 -> 36         0.00137
      10 -> 36        -0.00190
      10 -> 40        -0.00102
      10 -> 45        -0.00112
      10 -> 48        -0.00130
      10 -> 52        -0.00147
      11 -> 36        -0.00289
      11 -> 44        -0.00160
      11 -> 45         0.00205
      11 -> 48         0.00142
      12 -> 31        -0.00145
      12 -> 34         0.00237
      12 -> 37        -0.00229
      12 -> 39        -0.00180
      12 -> 46        -0.00229
      12 -> 49         0.00105
      13 -> 30        -0.01269
      13 -> 38        -0.00139
      14 -> 36         0.00552
      14 -> 40         0.00229
      14 -> 44         0.00131
      14 -> 45        -0.00289
      14 -> 47        -0.00231
      14 -> 48         0.00121
      14 -> 50         0.00173
      14 -> 52        -0.00121
      15 -> 31        -0.00583
      15 -> 34        -0.00346
      15 -> 37        -0.00190
      15 -> 39         0.00422
      15 -> 46         0.00519
      15 -> 49        -0.00165
      15 -> 53        -0.00197
      16 -> 30         0.01957
      16 -> 38         0.00187
      17 -> 30         0.00137
      17 -> 32         0.00110
      17 -> 36         0.00355
      17 -> 44         0.00158
      17 -> 45        -0.00104
      17 -> 52        -0.00225
      18 -> 31         0.00218
      18 -> 39         0.00560
      18 -> 43        -0.00174
      18 -> 46         0.00824
      18 -> 49        -0.00167
      18 -> 53        -0.00228
      19 -> 36         0.00205
      19 -> 45        -0.00288
      19 -> 47         0.00388
      19 -> 48        -0.00298
      19 -> 52         0.00131
      20 -> 29        -0.00396
      20 -> 33        -0.00327
      20 -> 35         0.00474
      20 -> 41        -0.00301
      21 -> 30         0.00181
      21 -> 34        -0.00120
      21 -> 37        -0.00189
      21 -> 39         0.00281
      21 -> 42         0.00221
      21 -> 49        -0.00192
      21 -> 51        -0.00213
      22 -> 30         0.06031
      22 -> 38        -0.00212
      23 -> 34         0.00123
      23 -> 37        -0.00167
      23 -> 43        -0.00150
      23 -> 46        -0.00418
      23 -> 49         0.00141
      23 -> 51        -0.00127
      23 -> 53         0.00188
      24 -> 32        -0.00215
      24 -> 36        -0.00618
      24 -> 40        -0.00131
      24 -> 47        -0.00172
      24 -> 48         0.00231
      24 -> 52         0.00153
      25 -> 31         0.00354
      25 -> 34         0.00196
      25 -> 37        -0.00329
      25 -> 39         0.00943
      25 -> 42         0.00839
      25 -> 43         0.00245
      25 -> 46        -0.00164
      25 -> 49        -0.00511
      25 -> 51        -0.00702
      25 -> 53        -0.00346
      26 -> 30        -0.13614
      26 -> 31        -0.00106
      26 -> 38         0.00172
      27 -> 29         0.33287
      27 -> 33        -0.04673
      27 -> 34        -0.00185
      27 -> 35        -0.04012
      27 -> 41         0.01020
      28 -> 30         0.60765
      28 -> 31        -0.00231
      28 -> 38         0.00553
       4 <- 39        -0.00174
       4 <- 46        -0.00213
       4 <- 49        -0.00114
       7 <- 36         0.00116
       7 <- 45        -0.00172
       8 <- 39         0.00322
       8 <- 42         0.00125
       8 <- 51        -0.00153
       9 <- 50        -0.00106
      10 <- 45        -0.00165
      10 <- 52        -0.00108
      11 <- 36        -0.00188
      11 <- 44        -0.00117
      11 <- 45         0.00211
      12 <- 34         0.00199
      12 <- 37        -0.00101
      12 <- 46        -0.00155
      12 <- 49         0.00162
      14 <- 36         0.00255
      14 <- 40         0.00117
      14 <- 47        -0.00107
      15 <- 31        -0.00263
      15 <- 34        -0.00233
      15 <- 39         0.00172
      15 <- 46         0.00290
      15 <- 49        -0.00192
      16 <- 30         0.00837
      17 <- 36         0.00145
      17 <- 48        -0.00172
      17 <- 52        -0.00130
      18 <- 39         0.00257
      18 <- 46         0.00394
      18 <- 53        -0.00160
      19 <- 36         0.00128
      19 <- 45        -0.00164
      19 <- 47         0.00202
      19 <- 48        -0.00129
      20 <- 41        -0.00149
      21 <- 39         0.00115
      21 <- 42         0.00127
      21 <- 49        -0.00145
      22 <- 38        -0.00148
      23 <- 46        -0.00227
      24 <- 32        -0.00150
      24 <- 36        -0.00250
      24 <- 45        -0.00124
      24 <- 47        -0.00106
      24 <- 48         0.00295
      25 <- 31         0.00128
      25 <- 34         0.00136
      25 <- 37        -0.00143
      25 <- 39         0.00479
      25 <- 42         0.00324
      25 <- 43         0.00142
      25 <- 46        -0.00182
      25 <- 49        -0.00174
      25 <- 51        -0.00368
      25 <- 53        -0.00184
      26 <- 30        -0.01879
      26 <- 38         0.00159
      27 <- 29         0.07568
      27 <- 33        -0.02431
      27 <- 35        -0.00214
      27 <- 41         0.00581
      28 <- 30         0.02448
 This state for optimization and/or second-order correction.
 Total Energy, E(TD-HF/TD-DFT) =  0.288792562446    
 Copying the excited state density for this state as the 1-particle RhoCI density.
 
 Excited state symmetry could not be determined.
 Excited State   2:      Singlet-?Sym    3.7341 eV  332.03 nm  f=0.2206  <S**2>=0.000
       1 -> 39         0.00117
       2 -> 31         0.00160
       2 -> 34        -0.00114
       2 -> 46         0.00140
       2 -> 51        -0.00100
       3 -> 31         0.00119
       4 -> 36         0.00107
       4 -> 45        -0.00124
       4 -> 47        -0.00185
       4 -> 48        -0.00174
       5 -> 31         0.00228
       5 -> 34         0.00176
       5 -> 43         0.00139
       5 -> 49        -0.00131
       6 -> 44         0.00350
       6 -> 45         0.00112
       6 -> 52        -0.00180
       7 -> 31         0.00519
       7 -> 34         0.00149
       7 -> 39         0.00155
       7 -> 43        -0.00243
       7 -> 49        -0.00208
       7 -> 51        -0.00138
       7 -> 53        -0.00274
       8 -> 36        -0.00293
       8 -> 40         0.00101
       8 -> 44        -0.00284
       8 -> 45         0.00212
       8 -> 48         0.00135
       8 -> 50        -0.00183
       9 -> 31         0.01172
       9 -> 39         0.00218
       9 -> 43        -0.00302
       9 -> 46         0.00237
       9 -> 49        -0.00113
       9 -> 51         0.00113
       9 -> 53        -0.00103
      10 -> 34         0.00211
      10 -> 37         0.00264
      10 -> 42        -0.00155
      10 -> 49        -0.00203
      10 -> 51        -0.00206
      10 -> 53         0.00166
      10 -> 54         0.00194
      11 -> 31         0.00139
      11 -> 34        -0.00194
      11 -> 37         0.00797
      11 -> 42        -0.00227
      11 -> 43        -0.00411
      11 -> 46        -0.00205
      11 -> 49         0.00367
      11 -> 51        -0.00343
      11 -> 53         0.00967
      12 -> 32        -0.00142
      12 -> 36         0.00578
      12 -> 40        -0.00445
      12 -> 44         0.00455
      12 -> 45        -0.00555
      12 -> 47         0.00460
      12 -> 48        -0.00104
      12 -> 50         0.00162
      12 -> 52         0.00806
      13 -> 29         0.00190
      13 -> 31         0.00375
      13 -> 33         0.00222
      13 -> 35        -0.00326
      13 -> 41         0.00582
      14 -> 31        -0.00565
      14 -> 34        -0.00182
      14 -> 37         0.00636
      14 -> 39        -0.00391
      14 -> 42         0.00183
      14 -> 43        -0.00318
      14 -> 46         0.00447
      14 -> 51        -0.00140
      15 -> 32         0.00167
      15 -> 40        -0.00224
      15 -> 45         0.00439
      15 -> 47         0.00131
      15 -> 48        -0.00751
      15 -> 52         0.01154
      16 -> 29         0.01046
      16 -> 31        -0.00179
      16 -> 33         0.01645
      16 -> 34        -0.00147
      16 -> 35        -0.03851
      16 -> 41        -0.01176
      17 -> 31         0.01039
      17 -> 34        -0.00935
      17 -> 35        -0.00155
      17 -> 37        -0.00693
      17 -> 39         0.00117
      17 -> 43         0.00387
      17 -> 46         0.00239
      17 -> 49        -0.00835
      17 -> 51         0.00179
      17 -> 53        -0.00420
      18 -> 32        -0.00215
      18 -> 36        -0.00380
      18 -> 40        -0.00608
      18 -> 45        -0.00170
      18 -> 48         0.00845
      18 -> 50         0.00564
      19 -> 31         0.00733
      19 -> 34        -0.00175
      19 -> 37         0.00395
      19 -> 38        -0.00413
      19 -> 39         0.00602
      19 -> 42         0.00630
      19 -> 43        -0.00128
      19 -> 46        -0.00449
      19 -> 49        -0.00647
      19 -> 51         0.00614
      19 -> 53        -0.01008
      20 -> 30         0.00422
      20 -> 38         0.02987
      20 -> 40        -0.00164
      20 -> 53        -0.00150
      21 -> 32         0.00335
      21 -> 33        -0.00152
      21 -> 36        -0.00119
      21 -> 40        -0.00377
      21 -> 44        -0.00452
      21 -> 45         0.00600
      21 -> 47        -0.00360
      21 -> 48        -0.00261
      21 -> 50        -0.00312
      21 -> 52         0.00166
      22 -> 29         0.02881
      22 -> 33        -0.05059
      22 -> 35         0.01158
      22 -> 41         0.02039
      23 -> 32        -0.00111
      23 -> 36         0.00526
      23 -> 40        -0.00819
      23 -> 44        -0.00781
      23 -> 45         0.00369
      23 -> 47        -0.00317
      23 -> 48         0.00254
      23 -> 50        -0.00347
      23 -> 52        -0.00536
      24 -> 31        -0.01428
      24 -> 34         0.01253
      24 -> 37         0.00376
      24 -> 39        -0.00401
      24 -> 42        -0.00189
      24 -> 43        -0.00288
      24 -> 49         0.01191
      24 -> 51        -0.00361
      24 -> 53         0.00585
      24 -> 54         0.00248
      25 -> 32        -0.00441
      25 -> 36        -0.00962
      25 -> 40         0.00139
      25 -> 44         0.00351
      25 -> 47        -0.00814
      25 -> 48         0.00209
      25 -> 50        -0.00419
      25 -> 52         0.00709
      26 -> 29        -0.08489
      26 -> 31         0.01206
      26 -> 33        -0.06291
      26 -> 34         0.00350
      26 -> 35         0.05821
      26 -> 41        -0.02380
      27 -> 30        -0.23024
      27 -> 38        -0.00181
      28 -> 29         0.63259
      28 -> 31         0.02711
      28 -> 33        -0.14997
      28 -> 34         0.00278
      28 -> 35         0.03871
      28 -> 41        -0.00549
      28 -> 42        -0.00153
      28 -> 53        -0.00132
       1 <- 39         0.00296
       1 <- 51        -0.00147
       2 <- 31         0.00181
       2 <- 34        -0.00147
       2 <- 46         0.00204
       3 <- 31         0.00126
       4 <- 36         0.00174
       4 <- 44         0.00102
       4 <- 45        -0.00253
       4 <- 47        -0.00126
       5 <- 31         0.00177
       5 <- 34         0.00200
       5 <- 43         0.00149
       5 <- 46        -0.00332
       6 <- 44         0.00142
       6 <- 52        -0.00120
       7 <- 31         0.00493
       7 <- 34         0.00109
       7 <- 49        -0.00157
       7 <- 53        -0.00302
       8 <- 36        -0.00327
       8 <- 44        -0.00147
       8 <- 45         0.00160
       8 <- 48         0.00191
       8 <- 50        -0.00242
       8 <- 52         0.00167
       9 <- 31         0.00760
       9 <- 51         0.00212
       9 <- 53        -0.00120
      10 <- 34         0.00202
      10 <- 37         0.00122
      10 <- 39         0.00114
      10 <- 51        -0.00250
      10 <- 54         0.00135
      11 <- 31        -0.00126
      11 <- 34        -0.00189
      11 <- 37         0.00438
      11 <- 42        -0.00121
      11 <- 43        -0.00186
      11 <- 46         0.00115
      11 <- 49         0.00230
      11 <- 51        -0.00246
      11 <- 53         0.00626
      12 <- 32        -0.00113
      12 <- 36         0.00319
      12 <- 40        -0.00262
      12 <- 44         0.00204
      12 <- 45        -0.00409
      12 <- 47         0.00254
      12 <- 48        -0.00102
      12 <- 52         0.00388
      13 <- 29        -0.00360
      13 <- 33        -0.00102
      13 <- 35         0.00189
      13 <- 41         0.00110
      14 <- 31        -0.00266
      14 <- 34        -0.00126
      14 <- 37         0.00282
      14 <- 39        -0.00113
      14 <- 42         0.00146
      14 <- 43        -0.00159
      14 <- 46         0.00474
      15 <- 32         0.00119
      15 <- 36        -0.00177
      15 <- 44        -0.00114
      15 <- 45         0.00352
      15 <- 48        -0.00307
      15 <- 52         0.00701
      16 <- 29        -0.00164
      16 <- 33        -0.00493
      16 <- 35         0.00198
      16 <- 41        -0.00210
      17 <- 31         0.00602
      17 <- 34        -0.00463
      17 <- 37        -0.00321
      17 <- 43         0.00137
      17 <- 46         0.00107
      17 <- 49        -0.00364
      17 <- 51         0.00205
      17 <- 53        -0.00300
      18 <- 36        -0.00264
      18 <- 40        -0.00224
      18 <- 45         0.00107
      18 <- 48         0.00324
      18 <- 50         0.00274
      19 <- 31         0.00503
      19 <- 38        -0.00112
      19 <- 39         0.00183
      19 <- 42         0.00247
      19 <- 46        -0.00361
      19 <- 49        -0.00280
      19 <- 51         0.00371
      19 <- 53        -0.00588
      20 <- 38         0.00828
      21 <- 32         0.00146
      21 <- 36        -0.00126
      21 <- 40        -0.00113
      21 <- 44        -0.00182
      21 <- 45         0.00335
      21 <- 47        -0.00168
      21 <- 50        -0.00114
      21 <- 52         0.00153
      22 <- 29         0.00103
      22 <- 35        -0.00750
      22 <- 41         0.00463
      23 <- 36         0.00246
      23 <- 40        -0.00307
      23 <- 44        -0.00183
      23 <- 47        -0.00111
      23 <- 48         0.00119
      23 <- 50        -0.00218
      23 <- 52        -0.00245
      24 <- 31        -0.00740
      24 <- 34         0.00622
      24 <- 37         0.00202
      24 <- 43        -0.00104
      24 <- 49         0.00514
      24 <- 51        -0.00334
      24 <- 53         0.00365
      24 <- 54         0.00153
      25 <- 32        -0.00230
      25 <- 36        -0.00541
      25 <- 47        -0.00401
      25 <- 48         0.00264
      25 <- 50        -0.00369
      25 <- 52         0.00435
      26 <- 29        -0.00138
      26 <- 33        -0.00365
      26 <- 35        -0.00139
      26 <- 41        -0.00949
      27 <- 30        -0.04221
      27 <- 38         0.00191
      28 <- 29        -0.01175
      28 <- 31        -0.00195
      28 <- 33         0.00653
      28 <- 35        -0.00345
      28 <- 41        -0.00609
 
 Excited state symmetry could not be determined.
 Excited State   3:      Singlet-?Sym    3.8242 eV  324.21 nm  f=0.0029  <S**2>=0.000
       2 -> 29         0.00112
       5 -> 29         0.00270
       5 -> 33        -0.00166
       7 -> 29        -0.00174
       7 -> 33         0.00200
       7 -> 35        -0.00163
       7 -> 41        -0.00144
       9 -> 29         0.00422
       9 -> 33        -0.00212
       9 -> 35         0.00142
       9 -> 41        -0.00324
      10 -> 41        -0.00192
      11 -> 29         0.00907
      11 -> 33        -0.00679
      11 -> 35         0.00468
      11 -> 41        -0.00767
      12 -> 38        -0.00720
      13 -> 31         0.08441
      13 -> 34         0.00540
      13 -> 37        -0.00353
      13 -> 39        -0.00169
      13 -> 42        -0.01466
      13 -> 43        -0.00129
      13 -> 46         0.00541
      13 -> 49         0.00667
      13 -> 53        -0.00963
      13 -> 54        -0.00109
      14 -> 29        -0.00339
      14 -> 33         0.00196
      14 -> 41        -0.00399
      15 -> 38        -0.00998
      16 -> 31        -0.02461
      16 -> 34        -0.00265
      16 -> 35         0.00197
      16 -> 37         0.00423
      16 -> 39         0.00156
      16 -> 42         0.00184
      16 -> 43        -0.00174
      16 -> 51        -0.00390
      16 -> 53         0.00455
      17 -> 29        -0.00142
      17 -> 31        -0.00203
      17 -> 33         0.00136
      17 -> 35        -0.00120
      17 -> 41         0.00534
      18 -> 38         0.00491
      19 -> 29        -0.00868
      19 -> 33         0.00545
      19 -> 35        -0.00319
      19 -> 41        -0.00542
      19 -> 44         0.00186
      19 -> 48        -0.00132
      19 -> 52         0.00258
      20 -> 29        -0.00133
      20 -> 38        -0.00100
      20 -> 40        -0.00433
      20 -> 44        -0.01268
      20 -> 45         0.00559
      20 -> 47        -0.00613
      20 -> 48         0.00906
      20 -> 50        -0.00183
      20 -> 52        -0.01809
      21 -> 38         0.00468
      22 -> 29        -0.00126
      22 -> 31        -0.00728
      22 -> 33         0.00221
      22 -> 34        -0.00112
      22 -> 37        -0.00926
      22 -> 39        -0.00151
      22 -> 42         0.00636
      22 -> 43         0.00577
      22 -> 46        -0.00473
      22 -> 49        -0.00581
      22 -> 51         0.00711
      22 -> 53        -0.00267
      23 -> 38         0.01746
      24 -> 29         0.00395
      24 -> 31         0.00108
      24 -> 33        -0.00235
      24 -> 35         0.00155
      24 -> 41        -0.00177
      25 -> 31         0.00187
      25 -> 38        -0.00755
      26 -> 29         0.00506
      26 -> 31         0.25956
      26 -> 33         0.00476
      26 -> 34         0.01986
      26 -> 35        -0.00378
      26 -> 37         0.01625
      26 -> 39        -0.00233
      26 -> 42        -0.03295
      26 -> 43        -0.01532
      26 -> 46         0.00915
      26 -> 49         0.01602
      26 -> 53        -0.01655
      26 -> 54        -0.00133
      27 -> 29         0.00159
      27 -> 30         0.01064
      27 -> 36        -0.01684
      27 -> 40        -0.00458
      27 -> 44        -0.00155
      27 -> 45         0.00657
      27 -> 47        -0.00344
      27 -> 48        -0.00824
      27 -> 50        -0.00219
      27 -> 52         0.01461
      28 -> 29        -0.02500
      28 -> 30         0.00196
      28 -> 31         0.64559
      28 -> 33         0.01118
      28 -> 34         0.02270
      28 -> 35        -0.00323
      28 -> 37         0.00946
      28 -> 39        -0.00731
      28 -> 41        -0.00136
      28 -> 42        -0.04126
      28 -> 43        -0.01698
      28 -> 46        -0.00301
      28 -> 49         0.00695
      28 -> 51         0.01948
      28 -> 53        -0.03770
      28 -> 54        -0.00275
       1 <- 29         0.00133
       1 <- 41         0.00106
       2 <- 29         0.00271
       2 <- 33        -0.00135
       2 <- 41         0.00127
       3 <- 29         0.00132
       5 <- 29         0.00164
       5 <- 33        -0.00117
       6 <- 38         0.00169
       7 <- 29        -0.00133
       7 <- 33         0.00115
       9 <- 41        -0.00148
      10 <- 29         0.00114
      11 <- 29         0.00451
      11 <- 33        -0.00473
      11 <- 35         0.00329
      11 <- 41        -0.00338
      12 <- 38        -0.00503
      13 <- 31        -0.01518
      13 <- 37        -0.00173
      13 <- 42         0.00158
      13 <- 46        -0.00157
      13 <- 53         0.00233
      14 <- 29         0.00136
      15 <- 30         0.00260
      15 <- 38        -0.00678
      16 <- 31         0.00331
      16 <- 53        -0.00198
      17 <- 29        -0.00400
      17 <- 33         0.00252
      17 <- 35        -0.00122
      18 <- 30        -0.00173
      18 <- 38         0.00180
      19 <- 29        -0.00671
      19 <- 33         0.00453
      19 <- 35        -0.00234
      20 <- 36         0.00338
      20 <- 40        -0.00378
      20 <- 45        -0.00163
      20 <- 48        -0.00200
      20 <- 52         0.00381
      22 <- 31         0.00182
      22 <- 37         0.00123
      22 <- 46         0.00142
      22 <- 51        -0.00205
      22 <- 53         0.00283
      23 <- 38         0.00588
      24 <- 29         0.00618
      24 <- 33        -0.00317
      24 <- 35         0.00167
      25 <- 30        -0.00216
      25 <- 38        -0.00274
      26 <- 31        -0.02464
      26 <- 34        -0.00121
      26 <- 37        -0.00179
      26 <- 42         0.00331
      26 <- 46        -0.00311
      26 <- 49        -0.00107
      26 <- 51         0.00239
      27 <- 30         0.00176
      27 <- 48         0.00115
      28 <- 31        -0.04233
      28 <- 34        -0.00192
      28 <- 42         0.00480
      28 <- 43        -0.00165
      28 <- 46        -0.00229
      28 <- 49        -0.00108
      28 <- 53         0.00515
 
 Excited state symmetry could not be determined.
 Excited State   4:      Singlet-?Sym    5.1595 eV  240.30 nm  f=0.3878  <S**2>=0.000
       1 -> 51        -0.00135
       2 -> 42        -0.00166
       2 -> 46         0.00134
       3 -> 54         0.00103
       4 -> 44        -0.00110
       4 -> 47         0.00144
       5 -> 31         0.00155
       5 -> 34         0.00177
       5 -> 37        -0.00103
       5 -> 42         0.00344
       5 -> 43         0.00148
       5 -> 49         0.00115
       6 -> 36        -0.00178
       6 -> 44         0.00339
       6 -> 45         0.00128
       6 -> 47         0.00103
       6 -> 52        -0.00106
       7 -> 34         0.00230
       7 -> 37         0.00112
       7 -> 39         0.00281
       7 -> 43        -0.00308
       7 -> 51        -0.00214
       8 -> 32         0.00151
       8 -> 36        -0.00526
       8 -> 40        -0.00169
       8 -> 44        -0.00195
       8 -> 48        -0.00245
       8 -> 50         0.00136
       9 -> 31         0.00929
       9 -> 34        -0.00350
       9 -> 39        -0.00108
       9 -> 42         0.00559
       9 -> 43        -0.00341
       9 -> 49        -0.00111
       9 -> 51         0.00163
       9 -> 53         0.00205
      10 -> 34        -0.00545
      10 -> 37         0.00249
      10 -> 39         0.00389
      10 -> 51        -0.00573
      11 -> 31         0.00423
      11 -> 34         0.00264
      11 -> 37         0.00731
      11 -> 42        -0.00529
      11 -> 43        -0.00378
      11 -> 49        -0.00104
      11 -> 51        -0.00108
      11 -> 53         0.00388
      12 -> 32        -0.00172
      12 -> 36         0.01314
      12 -> 40        -0.00380
      12 -> 44         0.00666
      12 -> 45        -0.00935
      12 -> 47         0.00486
      12 -> 48         0.00270
      13 -> 29         0.01599
      13 -> 33        -0.02734
      13 -> 34         0.00119
      13 -> 35         0.02520
      13 -> 41         0.01273
      14 -> 31        -0.00907
      14 -> 34        -0.00802
      14 -> 37         0.01232
      14 -> 42        -0.00369
      14 -> 43        -0.00676
      14 -> 46         0.02163
      14 -> 49        -0.00745
      14 -> 51        -0.00172
      14 -> 53        -0.00171
      15 -> 32         0.00719
      15 -> 36        -0.00386
      15 -> 40        -0.00390
      15 -> 44        -0.00182
      15 -> 45         0.01109
      15 -> 47         0.00104
      15 -> 48        -0.01367
      15 -> 50         0.00146
      15 -> 52         0.00897
      16 -> 29        -0.04240
      16 -> 33        -0.01993
      16 -> 34         0.00224
      16 -> 35         0.03622
      16 -> 41        -0.00261
      17 -> 29        -0.00195
      17 -> 31         0.00866
      17 -> 34        -0.01125
      17 -> 35         0.00214
      17 -> 37        -0.00935
      17 -> 42         0.00399
      17 -> 43         0.00207
      17 -> 46         0.00576
      17 -> 49        -0.01521
      17 -> 51         0.00152
      17 -> 54         0.00186
      18 -> 32        -0.00360
      18 -> 36        -0.00427
      18 -> 40        -0.00670
      18 -> 47        -0.00771
      18 -> 48         0.01179
      18 -> 50         0.01069
      18 -> 52         0.00429
      19 -> 31         0.00761
      19 -> 37         0.00852
      19 -> 38        -0.00435
      19 -> 42         0.01351
      19 -> 43         0.00122
      19 -> 46        -0.01475
      19 -> 49        -0.00272
      19 -> 51         0.00522
      19 -> 53        -0.00370
      20 -> 30        -0.00742
      20 -> 37         0.00142
      20 -> 38         0.03017
      20 -> 40        -0.00168
      20 -> 42         0.00185
      20 -> 46        -0.00224
      21 -> 32        -0.01613
      21 -> 33         0.00102
      21 -> 35        -0.00123
      21 -> 36        -0.01263
      21 -> 40        -0.01021
      21 -> 44        -0.00525
      21 -> 45         0.00831
      21 -> 47        -0.00479
      21 -> 48        -0.00293
      21 -> 50        -0.00590
      21 -> 52         0.00470
      22 -> 29         0.00577
      22 -> 33         0.02956
      22 -> 34        -0.00193
      22 -> 35        -0.04299
      22 -> 41         0.00626
      23 -> 32         0.00826
      23 -> 36         0.00298
      23 -> 38        -0.00108
      23 -> 40        -0.01469
      23 -> 44        -0.00675
      23 -> 45         0.00261
      23 -> 47        -0.00165
      23 -> 48         0.00377
      23 -> 50        -0.00434
      23 -> 52        -0.00736
      24 -> 31        -0.01221
      24 -> 37         0.00318
      24 -> 42        -0.00491
      24 -> 43        -0.00149
      24 -> 46        -0.00446
      24 -> 49         0.02511
      24 -> 51        -0.00550
      24 -> 53        -0.00109
      25 -> 32        -0.00717
      25 -> 36        -0.05009
      25 -> 38        -0.00117
      25 -> 40        -0.01585
      25 -> 44         0.00656
      25 -> 45        -0.01070
      25 -> 47        -0.01211
      25 -> 48         0.01249
      25 -> 50        -0.00543
      25 -> 52         0.01835
      26 -> 29         0.20527
      26 -> 33        -0.05935
      26 -> 35        -0.00935
      26 -> 41        -0.02264
      27 -> 30         0.61420
      27 -> 38         0.00354
      28 -> 29         0.22130
      28 -> 33        -0.09757
      28 -> 34         0.00394
      28 -> 35         0.08253
      28 -> 36         0.00126
      28 -> 41        -0.02767
       1 <- 31         0.00162
       1 <- 34        -0.00120
       1 <- 39        -0.00106
       1 <- 42         0.00106
       1 <- 49        -0.00270
       2 <- 42        -0.00181
       2 <- 49         0.00122
       3 <- 49         0.00115
       4 <- 32         0.00131
       4 <- 36        -0.00180
       4 <- 44        -0.00175
       4 <- 45         0.00327
       4 <- 47         0.00235
       4 <- 48        -0.00405
       4 <- 50        -0.00150
       5 <- 42         0.00235
       6 <- 36        -0.00160
       6 <- 45         0.00188
       6 <- 47         0.00103
       6 <- 48        -0.00205
       7 <- 31         0.00100
       7 <- 34         0.00151
       7 <- 39         0.00159
       7 <- 49         0.00221
       7 <- 53        -0.00210
       8 <- 32         0.00124
       8 <- 36        -0.00260
       8 <- 48        -0.00169
       8 <- 50         0.00155
       9 <- 31         0.00487
       9 <- 34        -0.00216
       9 <- 37        -0.00140
       9 <- 39        -0.00205
       9 <- 42         0.00379
       9 <- 49        -0.00313
       9 <- 51         0.00124
       9 <- 53         0.00128
      10 <- 34        -0.00236
      10 <- 39         0.00227
      10 <- 46         0.00124
      10 <- 49         0.00151
      10 <- 51        -0.00112
      11 <- 34         0.00107
      11 <- 37         0.00249
      11 <- 42        -0.00264
      11 <- 53         0.00244
      12 <- 36         0.00588
      12 <- 40        -0.00130
      12 <- 44         0.00251
      12 <- 45        -0.00540
      12 <- 48         0.00289
      12 <- 50         0.00215
      13 <- 29         0.00587
      13 <- 35        -0.00163
      14 <- 31        -0.00312
      14 <- 34        -0.00258
      14 <- 37         0.00368
      14 <- 42        -0.00112
      14 <- 43        -0.00203
      14 <- 46         0.00813
      14 <- 49        -0.00214
      14 <- 51        -0.00133
      15 <- 32         0.00183
      15 <- 36        -0.00287
      15 <- 40        -0.00127
      15 <- 44        -0.00202
      15 <- 45         0.00518
      15 <- 47         0.00119
      15 <- 48        -0.00678
      15 <- 50        -0.00118
      15 <- 52         0.00327
      16 <- 33         0.00412
      16 <- 35        -0.00262
      16 <- 41        -0.00176
      17 <- 31         0.00427
      17 <- 34        -0.00434
      17 <- 37        -0.00321
      17 <- 42         0.00268
      17 <- 46         0.00118
      17 <- 49        -0.00773
      17 <- 51         0.00171
      18 <- 32        -0.00217
      18 <- 40        -0.00224
      18 <- 44         0.00155
      18 <- 45        -0.00343
      18 <- 47        -0.00168
      18 <- 48         0.00715
      18 <- 50         0.00385
      19 <- 31         0.00401
      19 <- 42         0.00450
      19 <- 43         0.00127
      19 <- 46        -0.00502
      19 <- 49        -0.00228
      19 <- 51         0.00239
      19 <- 53        -0.00149
      20 <- 38         0.00345
      21 <- 32        -0.00286
      21 <- 36        -0.00488
      21 <- 40        -0.00250
      21 <- 44        -0.00160
      21 <- 45         0.00354
      21 <- 47        -0.00123
      21 <- 48        -0.00225
      21 <- 50        -0.00299
      21 <- 52         0.00185
      22 <- 29        -0.01545
      22 <- 35         0.00373
      22 <- 41         0.00227
      23 <- 32         0.00201
      23 <- 40        -0.00294
      23 <- 44        -0.00100
      23 <- 45         0.00151
      23 <- 52        -0.00197
      24 <- 31        -0.00542
      24 <- 37         0.00191
      24 <- 42        -0.00278
      24 <- 49         0.01114
      24 <- 51        -0.00240
      25 <- 32        -0.00165
      25 <- 36        -0.01274
      25 <- 40        -0.00427
      25 <- 44         0.00130
      25 <- 45        -0.00256
      25 <- 47        -0.00351
      25 <- 48         0.00395
      25 <- 52         0.00532
      26 <- 29         0.02076
      26 <- 33        -0.01345
      26 <- 35         0.00282
      26 <- 41        -0.00195
      27 <- 30        -0.04870
      28 <- 29        -0.05730
      28 <- 33         0.01420
      28 <- 35         0.00640
      28 <- 41        -0.00339
 SavETr:  write IOETrn=   770 NScale= 10 NData=  16 NLR=1 NState=    4 LETran=      82.

 **********************************************************************

            Population analysis using the SCF Density.

 **********************************************************************

 Alpha  occ. eigenvalues --   -1.55629  -1.42661  -1.35798  -1.20147  -1.18334
 Alpha  occ. eigenvalues --   -1.09102  -0.99308  -0.87169  -0.84047  -0.73186
 Alpha  occ. eigenvalues --   -0.68333  -0.64172  -0.61582  -0.57618  -0.55844
 Alpha  occ. eigenvalues --   -0.54309  -0.54021  -0.53523  -0.51141  -0.51027
 Alpha  occ. eigenvalues --   -0.49573  -0.49491  -0.48889  -0.47226  -0.43428
 Alpha  occ. eigenvalues --   -0.41000  -0.37601  -0.31662
 Alpha virt. eigenvalues --    0.00778   0.01526   0.07142   0.08086   0.08673
 Alpha virt. eigenvalues --    0.11590   0.11691   0.12881   0.13621   0.14302
 Alpha virt. eigenvalues --    0.14611   0.14640   0.15317   0.15679   0.16442
 Alpha virt. eigenvalues --    0.16469   0.16895   0.17009   0.17677   0.18537
 Alpha virt. eigenvalues --    0.19360   0.20349   0.20759   0.21936   0.23305
 Alpha virt. eigenvalues --    0.25384
          Condensed to atoms (all electrons):
               1          2          3          4          5          6
     1  C    4.048262   0.000000   0.000000   0.000000   0.000000   0.000000
     2  C    0.000000   4.217603   0.000000   0.000000   0.000000   0.000000
     3  C    0.000000   0.000000   3.828855   0.000000   0.000000   0.000000
     4  C    0.000000   0.000000   0.000000   4.217548   0.000000   0.000000
     5  C    0.000000   0.000000   0.000000   0.000000   4.048218   0.000000
     6  C    0.000000   0.000000   0.000000   0.000000   0.000000   4.092335
     7  H    0.000000   0.000000   0.000000   0.000000   0.000000   0.000000
     8  H    0.000000   0.000000   0.000000   0.000000   0.000000   0.000000
     9  H    0.000000   0.000000   0.000000   0.000000   0.000000   0.000000
    10  H    0.000000   0.000000   0.000000   0.000000   0.000000   0.000000
    11  N    0.000000   0.000000   0.000000   0.000000   0.000000   0.000000
    12  C    0.000000   0.000000   0.000000   0.000000   0.000000   0.000000
    13  H    0.000000   0.000000   0.000000   0.000000   0.000000   0.000000
    14  H    0.000000   0.000000   0.000000   0.000000   0.000000   0.000000
    15  H    0.000000   0.000000   0.000000   0.000000   0.000000   0.000000
    16  C    0.000000   0.000000   0.000000   0.000000   0.000000   0.000000
    17  H    0.000000   0.000000   0.000000   0.000000   0.000000   0.000000
    18  H    0.000000   0.000000   0.000000   0.000000   0.000000   0.000000
    19  H    0.000000   0.000000   0.000000   0.000000   0.000000   0.000000
    20  C    0.000000   0.000000   0.000000   0.000000   0.000000   0.000000
    21  N    0.000000   0.000000   0.000000   0.000000   0.000000   0.000000
               7          8          9         10         11         12
     1  C    0.000000   0.000000   0.000000   0.000000   0.000000   0.000000
     2  C    0.000000   0.000000   0.000000   0.000000   0.000000   0.000000
     3  C    0.000000   0.000000   0.000000   0.000000   0.000000   0.000000
     4  C    0.000000   0.000000   0.000000   0.000000   0.000000   0.000000
     5  C    0.000000   0.000000   0.000000   0.000000   0.000000   0.000000
     6  C    0.000000   0.000000   0.000000   0.000000   0.000000   0.000000
     7  H    0.861253   0.000000   0.000000   0.000000   0.000000   0.000000
     8  H    0.000000   0.869433   0.000000   0.000000   0.000000   0.000000
     9  H    0.000000   0.000000   0.869436   0.000000   0.000000   0.000000
    10  H    0.000000   0.000000   0.000000   0.861273   0.000000   0.000000
    11  N    0.000000   0.000000   0.000000   0.000000   5.299070   0.000000
    12  C    0.000000   0.000000   0.000000   0.000000   0.000000   4.055895
    13  H    0.000000   0.000000   0.000000   0.000000   0.000000   0.000000
    14  H    0.000000   0.000000   0.000000   0.000000   0.000000   0.000000
    15  H    0.000000   0.000000   0.000000   0.000000   0.000000   0.000000
    16  C    0.000000   0.000000   0.000000   0.000000   0.000000   0.000000
    17  H    0.000000   0.000000   0.000000   0.000000   0.000000   0.000000
    18  H    0.000000   0.000000   0.000000   0.000000   0.000000   0.000000
    19  H    0.000000   0.000000   0.000000   0.000000   0.000000   0.000000
    20  C    0.000000   0.000000   0.000000   0.000000   0.000000   0.000000
    21  N    0.000000   0.000000   0.000000   0.000000   0.000000   0.000000
              13         14         15         16         17         18
     1  C    0.000000   0.000000   0.000000   0.000000   0.000000   0.000000
     2  C    0.000000   0.000000   0.000000   0.000000   0.000000   0.000000
     3  C    0.000000   0.000000   0.000000   0.000000   0.000000   0.000000
     4  C    0.000000   0.000000   0.000000   0.000000   0.000000   0.000000
     5  C    0.000000   0.000000   0.000000   0.000000   0.000000   0.000000
     6  C    0.000000   0.000000   0.000000   0.000000   0.000000   0.000000
     7  H    0.000000   0.000000   0.000000   0.000000   0.000000   0.000000
     8  H    0.000000   0.000000   0.000000   0.000000   0.000000   0.000000
     9  H    0.000000   0.000000   0.000000   0.000000   0.000000   0.000000
    10  H    0.000000   0.000000   0.000000   0.000000   0.000000   0.000000
    11  N    0.000000   0.000000   0.000000   0.000000   0.000000   0.000000
    12  C    0.000000   0.000000   0.000000   0.000000   0.000000   0.000000
    13  H    0.911729   0.000000   0.000000   0.000000   0.000000   0.000000
    14  H    0.000000   0.929406   0.000000   0.000000   0.000000   0.000000
    15  H    0.000000   0.000000   0.928747   0.000000   0.000000   0.000000
    16  C    0.000000   0.000000   0.000000   4.055885   0.000000   0.000000
    17  H    0.000000   0.000000   0.000000   0.000000   0.911671   0.000000
    18  H    0.000000   0.000000   0.000000   0.000000   0.000000   0.928795
    19  H    0.000000   0.000000   0.000000   0.000000   0.000000   0.000000
    20  C    0.000000   0.000000   0.000000   0.000000   0.000000   0.000000
    21  N    0.000000   0.000000   0.000000   0.000000   0.000000   0.000000
              19         20         21
     1  C    0.000000   0.000000   0.000000
     2  C    0.000000   0.000000   0.000000
     3  C    0.000000   0.000000   0.000000
     4  C    0.000000   0.000000   0.000000
     5  C    0.000000   0.000000   0.000000
     6  C    0.000000   0.000000   0.000000
     7  H    0.000000   0.000000   0.000000
     8  H    0.000000   0.000000   0.000000
     9  H    0.000000   0.000000   0.000000
    10  H    0.000000   0.000000   0.000000
    11  N    0.000000   0.000000   0.000000
    12  C    0.000000   0.000000   0.000000
    13  H    0.000000   0.000000   0.000000
    14  H    0.000000   0.000000   0.000000
    15  H    0.000000   0.000000   0.000000
    16  C    0.000000   0.000000   0.000000
    17  H    0.000000   0.000000   0.000000
    18  H    0.000000   0.000000   0.000000
    19  H    0.929449   0.000000   0.000000
    20  C    0.000000   4.079571   0.000000
    21  N    0.000000   0.000000   5.055566
 Mulliken charges:
               1
     1  C   -0.048262
     2  C   -0.217603
     3  C    0.171145
     4  C   -0.217548
     5  C   -0.048218
     6  C   -0.092335
     7  H    0.138747
     8  H    0.130567
     9  H    0.130564
    10  H    0.138727
    11  N   -0.299070
    12  C   -0.055895
    13  H    0.088271
    14  H    0.070594
    15  H    0.071253
    16  C   -0.055885
    17  H    0.088329
    18  H    0.071205
    19  H    0.070551
    20  C   -0.079571
    21  N   -0.055566
 Sum of Mulliken charges =  -0.00000
 Mulliken charges with hydrogens summed into heavy atoms:
               1
     1  C    0.090485
     2  C   -0.087036
     3  C    0.171145
     4  C   -0.086984
     5  C    0.090509
     6  C   -0.092335
    11  N   -0.299070
    12  C    0.174223
    16  C    0.174200
    20  C   -0.079571
    21  N   -0.055566
 Charge=             -0.0000 electrons
 Dipole moment (field-independent basis, Debye):
    X=              5.4507    Y=             -0.0008    Z=              0.0182  Tot=              5.4508
 N-N= 3.162883839508D+02 E-N=-4.941099368926D+02  KE=-9.724117314039D+01

 Test job not archived.
 1\1\GINC-BHG0001\SP\RAM1 TD-Full\STO-5G\C9H10N2\BWEIGHT\02-Feb-2023\0\
 \# AM1/STO-5G SCF=XQC TD=(singlets,nstates=4,root=1) nosym IOp(9/40=3)
  guess=read\\MD Step 3\\0,1\C,0,-1.03748781,-1.17193354,0.00172886\C,0
 ,0.31491196,-1.13813049,0.00274636\C,0,1.00843593,0.00027577,-0.001555
 6\C,0,0.31474833,1.13843285,-0.00239973\C,0,-1.03761142,1.17190517,-0.
 00081988\C,0,-1.74508758,-0.00000902,0.00059803\H,0,-1.67319633,-2.053
 66278,0.00396793\H,0,0.77520377,-2.10609613,0.00520708\H,0,0.77491165,
 2.10641566,-0.00293081\H,0,-1.67367106,2.05325811,-0.00007373\N,0,2.34
 544176,0.00017786,-0.00491988\C,0,3.09795158,-1.23123169,-0.0005066\H,
 0,4.14093768,-1.02744246,-0.00183076\H,0,2.83629609,-1.83311899,0.8618
 0702\H,0,2.8354537,-1.83861216,-0.85932099\C,0,3.0987314,1.23083201,0.
 00471711\H,0,4.14149153,1.02661619,-0.01478408\H,0,2.82406081,1.847010
 03,-0.84454788\H,0,2.84966707,1.82480417,0.8760692\C,0,-3.20213324,-0.
 0002951,0.00007327\N,0,-4.32533184,0.00001391,-0.00070529\\Version=ES6
 4L-G16RevC.01\HF=0.1546022\RMSD=1.122e-09\PG=C01 [X(C9H10N2)]\\@


  THE LARGE PRINT GIVETH,
  AND THE SMALL PRINT TAKETH AWAY.

                     -- TOM WAITS
 Job cpu time:       0 days  0 hours  0 minutes 21.1 seconds.
 Elapsed time:       0 days  0 hours  0 minutes  2.5 seconds.
 File lengths (MBytes):  RWF=   1312 Int=      0 D2E=      0 Chk=     32 Scr=     32
 Normal termination of Gaussian 16 at Thu Feb  2 19:07:27 2023.
