53
geometry.out	Energy: -1466073.4977425
C          4.82542       -0.70905        0.65335
C          3.95001        0.34130        0.51616
C          2.67981        0.19211       -0.09884
C          2.35118       -1.12218       -0.52143
C          3.21738       -2.19650       -0.39678
C          4.48908       -2.01788        0.18722
C          0.18237       -0.43718       -1.19419
C          0.47118        0.92141       -0.82854
C         -0.57840        1.86360       -1.08531
H         -0.39630        2.91022       -0.87539
C         -1.79104        1.47873       -1.56592
C         -2.08491        0.09422       -1.84591
C         -1.02885       -0.84415       -1.68672
H          5.77637       -0.53303        1.13933
H          4.23384        1.31218        0.90364
H          2.87049       -3.16164       -0.74002
H         -2.56004        2.22485       -1.70853
H         -1.17278       -1.89705       -1.88021
N         -3.29802       -0.28147       -2.27545
N          5.36340       -3.06133        0.31772
P         -4.08087       -0.69311        1.38582
C          1.71399        1.23663       -0.26321
C          1.99207        2.61178        0.18352
C          1.26945        3.35435        1.09058
S          3.33097        3.55695       -0.44843
C          1.78649        4.66667        1.28920
H          0.40531        2.95712        1.61227
C          2.88912        4.92254        0.52087
H          1.35231        5.38688        1.97350
H          3.46792        5.83467        0.45981
O          1.13696       -1.40295       -1.06121
C         -3.60503       -1.70564       -2.44371
H         -4.64245       -1.80589       -2.75670
H         -2.96312       -2.14654       -3.21534
H         -3.47541       -2.22214       -1.49015
C         -4.40527        0.68190       -2.32344
H         -5.30758        0.15701       -2.63064
H         -4.57102        1.10210       -1.33000
H         -4.19656        1.47209       -3.05383
C          6.64983       -2.87164        0.97761
H          6.53175       -2.57491        2.02830
H          7.20393       -3.81024        0.95088
H          7.25225       -2.11024        0.46743
C          4.97007       -4.39830       -0.11007
H          4.72065       -4.41555       -1.17830
H          5.80031       -5.08562        0.05397
H          4.10238       -4.76632        0.45357
F         -2.86556       -1.49177        0.59212
F         -3.07594       -0.41180        2.62871
F         -5.27939        0.11767        2.11491
F         -5.05020       -0.95866        0.07429
F         -3.57325        0.71484        0.66888
F         -4.57030       -2.09202        2.04012
