 Entering Gaussian System, Link 0=g16
 Initial command:
 /software/gaussian/g16-c01/avx/g16/l1.exe "/gpfs/fs2/scratch/bweight/software/many_molecule_many_mode_NAMD/src/NAMD/test_wigner/IR/Gau-24148.inp" -scrdir="/gpfs/fs2/scratch/bweight/software/many_molecule_many_mode_NAMD/src/NAMD/test_wigner/IR/"
 Entering Link 1 = /software/gaussian/g16-c01/avx/g16/l1.exe PID=     24149.
  
 Copyright (c) 1988-2019, Gaussian, Inc.  All Rights Reserved.
  
 This is part of the Gaussian(R) 16 program.  It is based on
 the Gaussian(R) 09 system (copyright 2009, Gaussian, Inc.),
 the Gaussian(R) 03 system (copyright 2003, Gaussian, Inc.),
 the Gaussian(R) 98 system (copyright 1998, Gaussian, Inc.),
 the Gaussian(R) 94 system (copyright 1995, Gaussian, Inc.),
 the Gaussian 92(TM) system (copyright 1992, Gaussian, Inc.),
 the Gaussian 90(TM) system (copyright 1990, Gaussian, Inc.),
 the Gaussian 88(TM) system (copyright 1988, Gaussian, Inc.),
 the Gaussian 86(TM) system (copyright 1986, Carnegie Mellon
 University), and the Gaussian 82(TM) system (copyright 1983,
 Carnegie Mellon University). Gaussian is a federally registered
 trademark of Gaussian, Inc.
  
 This software contains proprietary and confidential information,
 including trade secrets, belonging to Gaussian, Inc.
  
 This software is provided under written license and may be
 used, copied, transmitted, or stored only in accord with that
 written license.
  
 The following legend is applicable only to US Government
 contracts under FAR:
  
                    RESTRICTED RIGHTS LEGEND
  
 Use, reproduction and disclosure by the US Government is
 subject to restrictions as set forth in subparagraphs (a)
 and (c) of the Commercial Computer Software - Restricted
 Rights clause in FAR 52.227-19.
  
 Gaussian, Inc.
 340 Quinnipiac St., Bldg. 40, Wallingford CT 06492
  
  
 ---------------------------------------------------------------
 Warning -- This program may not be used in any manner that
 competes with the business of Gaussian, Inc. or will provide
 assistance to any competitor of Gaussian, Inc.  The licensee
 of this program is prohibited from giving any competitor of
 Gaussian, Inc. access to this program.  By using this program,
 the user acknowledges that Gaussian, Inc. is engaged in the
 business of creating and licensing software in the field of
 computational chemistry and represents and warrants to the
 licensee that it is not a competitor of Gaussian, Inc. and that
 it will not use this program in any manner prohibited above.
 ---------------------------------------------------------------
  

 Cite this work as:
 Gaussian 16, Revision C.01,
 M. J. Frisch, G. W. Trucks, H. B. Schlegel, G. E. Scuseria, 
 M. A. Robb, J. R. Cheeseman, G. Scalmani, V. Barone, 
 G. A. Petersson, H. Nakatsuji, X. Li, M. Caricato, A. V. Marenich, 
 J. Bloino, B. G. Janesko, R. Gomperts, B. Mennucci, H. P. Hratchian, 
 J. V. Ortiz, A. F. Izmaylov, J. L. Sonnenberg, D. Williams-Young, 
 F. Ding, F. Lipparini, F. Egidi, J. Goings, B. Peng, A. Petrone, 
 T. Henderson, D. Ranasinghe, V. G. Zakrzewski, J. Gao, N. Rega, 
 G. Zheng, W. Liang, M. Hada, M. Ehara, K. Toyota, R. Fukuda, 
 J. Hasegawa, M. Ishida, T. Nakajima, Y. Honda, O. Kitao, H. Nakai, 
 T. Vreven, K. Throssell, J. A. Montgomery, Jr., J. E. Peralta, 
 F. Ogliaro, M. J. Bearpark, J. J. Heyd, E. N. Brothers, K. N. Kudin, 
 V. N. Staroverov, T. A. Keith, R. Kobayashi, J. Normand, 
 K. Raghavachari, A. P. Rendell, J. C. Burant, S. S. Iyengar, 
 J. Tomasi, M. Cossi, J. M. Millam, M. Klene, C. Adamo, R. Cammi, 
 J. W. Ochterski, R. L. Martin, K. Morokuma, O. Farkas, 
 J. B. Foresman, and D. J. Fox, Gaussian, Inc., Wallingford CT, 2019.
 
 ******************************************
 Gaussian 16:  ES64L-G16RevC.01  3-Jul-2019
                 1-Jan-2023 
 ******************************************
 %chk=geometry.chk
 %mem=5GB
 %nprocshared=1
 Will use up to    1 processors via shared memory.
 -----------------------------------------------------
 # OPT FREQ=saveNM B3LYP/6-311++G** GFINPUT IOP(6/7=1)
 -----------------------------------------------------
 1/18=20,19=15,26=3,38=1/1,3;
 2/9=110,12=2,17=6,18=5,40=1/2;
 3/5=4,6=6,7=1111,11=2,24=10,25=1,30=1,71=1,74=-5/1,2,3;
 4//1;
 5/5=2,38=5/2;
 6/7=1,8=2,9=2,10=2,28=1/1;
 7/92=1/1,2,3,16;
 1/18=20,19=15,26=3/3(2);
 2/9=110/2;
 99//99;
 2/9=110/2;
 3/5=4,6=6,7=1111,11=2,25=1,30=1,71=1,74=-5/1,2,3;
 4/5=5,16=3,69=1/1;
 5/5=2,38=5/2;
 7/92=1/1,2,3,16;
 1/18=20,19=15,26=3/3(-5);
 2/9=110/2;
 6/7=1,8=2,9=2,10=2,19=2,28=1/1;
 99/9=1/99;
 -------
 TitleMe
 -------
 Symbolic Z-matrix:
 Charge =  0 Multiplicity = 1
 C                     0.        0.        0.66552 
 C                     0.        0.       -0.66552 
 H                     0.        0.92412  -1.23897 
 H                     0.        0.92412   1.23897 
 H                     0.       -0.92412   1.23897 
 H                     0.       -0.92412  -1.23897 
 

 GradGradGradGradGradGradGradGradGradGradGradGradGradGradGradGradGradGrad
 Berny optimization.
 Initialization pass.
                           ----------------------------
                           !    Initial Parameters    !
                           ! (Angstroms and Degrees)  !
 --------------------------                            --------------------------
 ! Name  Definition              Value          Derivative Info.                !
 --------------------------------------------------------------------------------
 ! R1    R(1,2)                  1.331          estimate D2E/DX2                !
 ! R2    R(1,4)                  1.0876         estimate D2E/DX2                !
 ! R3    R(1,5)                  1.0876         estimate D2E/DX2                !
 ! R4    R(2,3)                  1.0876         estimate D2E/DX2                !
 ! R5    R(2,6)                  1.0876         estimate D2E/DX2                !
 ! A1    A(2,1,4)              121.8211         estimate D2E/DX2                !
 ! A2    A(2,1,5)              121.8211         estimate D2E/DX2                !
 ! A3    A(4,1,5)              116.3578         estimate D2E/DX2                !
 ! A4    A(1,2,3)              121.8211         estimate D2E/DX2                !
 ! A5    A(1,2,6)              121.8211         estimate D2E/DX2                !
 ! A6    A(3,2,6)              116.3578         estimate D2E/DX2                !
 ! D1    D(4,1,2,3)              0.0            estimate D2E/DX2                !
 ! D2    D(4,1,2,6)            180.0            estimate D2E/DX2                !
 ! D3    D(5,1,2,3)            180.0            estimate D2E/DX2                !
 ! D4    D(5,1,2,6)              0.0            estimate D2E/DX2                !
 --------------------------------------------------------------------------------
 Trust Radius=3.00D-01 FncErr=1.00D-07 GrdErr=1.00D-06 EigMax=2.50D+02 EigMin=1.00D-04
 Number of steps in this run=     25 maximum allowed number of steps=    100.
 GradGradGradGradGradGradGradGradGradGradGradGradGradGradGradGradGradGrad

                          Input orientation:                          
 ---------------------------------------------------------------------
 Center     Atomic      Atomic             Coordinates (Angstroms)
 Number     Number       Type             X           Y           Z
 ---------------------------------------------------------------------
      1          6           0        0.000000    0.000000    0.665520
      2          6           0        0.000000    0.000000   -0.665520
      3          1           0        0.000000    0.924120   -1.238970
      4          1           0        0.000000    0.924120    1.238970
      5          1           0        0.000000   -0.924120    1.238970
      6          1           0        0.000000   -0.924120   -1.238970
 ---------------------------------------------------------------------
                    Distance matrix (angstroms):
                    1          2          3          4          5
     1  C    0.000000
     2  C    1.331040   0.000000
     3  H    2.116856   1.087586   0.000000
     4  H    1.087586   2.116856   2.477940   0.000000
     5  H    1.087586   2.116856   3.091307   1.848240   0.000000
     6  H    2.116856   1.087586   1.848240   3.091307   2.477940
                    6
     6  H    0.000000
 Stoichiometry    C2H4
 Framework group  D2H[C2"(C.C),SG(H4)]
 Deg. of freedom     3
 Full point group                 D2H     NOp   8
 Largest Abelian subgroup         D2H     NOp   8
 Largest concise Abelian subgroup D2      NOp   4
                         Standard orientation:                         
 ---------------------------------------------------------------------
 Center     Atomic      Atomic             Coordinates (Angstroms)
 Number     Number       Type             X           Y           Z
 ---------------------------------------------------------------------
      1          6           0        0.000000    0.000000    0.665520
      2          6           0        0.000000    0.000000   -0.665520
      3          1           0        0.000000    0.924120   -1.238970
      4          1           0       -0.000000    0.924120    1.238970
      5          1           0       -0.000000   -0.924120    1.238970
      6          1           0       -0.000000   -0.924120   -1.238970
 ---------------------------------------------------------------------
 Rotational constants (GHZ):         146.7963733          30.0494610          24.9434877
 Standard basis: 6-311++G(d,p) (5D, 7F)
 AO basis set in the form of general basis input (Overlap normalization):
      1 0
 S   6 1.00       0.000000000000
      0.4563240000D+04  0.1966650249D-02
      0.6820240000D+03  0.1523060193D-01
      0.1549730000D+03  0.7612690966D-01
      0.4445530000D+02  0.2608010331D+00
      0.1302900000D+02  0.6164620782D+00
      0.1827730000D+01  0.2210060280D+00
 SP   3 1.00       0.000000000000
      0.2096420000D+02  0.1146600807D+00  0.4024869267D-01
      0.4803310000D+01  0.9199996477D+00  0.2375939567D+00
      0.1459330000D+01 -0.3030682134D-02  0.8158538515D+00
 SP   1 1.00       0.000000000000
      0.4834560000D+00  0.1000000000D+01  0.1000000000D+01
 SP   1 1.00       0.000000000000
      0.1455850000D+00  0.1000000000D+01  0.1000000000D+01
 SP   1 1.00       0.000000000000
      0.4380000000D-01  0.1000000000D+01  0.1000000000D+01
 D   1 1.00       0.000000000000
      0.6260000000D+00  0.1000000000D+01
 ****
      2 0
 S   6 1.00       0.000000000000
      0.4563240000D+04  0.1966650249D-02
      0.6820240000D+03  0.1523060193D-01
      0.1549730000D+03  0.7612690966D-01
      0.4445530000D+02  0.2608010331D+00
      0.1302900000D+02  0.6164620782D+00
      0.1827730000D+01  0.2210060280D+00
 SP   3 1.00       0.000000000000
      0.2096420000D+02  0.1146600807D+00  0.4024869267D-01
      0.4803310000D+01  0.9199996477D+00  0.2375939567D+00
      0.1459330000D+01 -0.3030682134D-02  0.8158538515D+00
 SP   1 1.00       0.000000000000
      0.4834560000D+00  0.1000000000D+01  0.1000000000D+01
 SP   1 1.00       0.000000000000
      0.1455850000D+00  0.1000000000D+01  0.1000000000D+01
 SP   1 1.00       0.000000000000
      0.4380000000D-01  0.1000000000D+01  0.1000000000D+01
 D   1 1.00       0.000000000000
      0.6260000000D+00  0.1000000000D+01
 ****
      3 0
 S   3 1.00       0.000000000000
      0.3386500000D+02  0.2549381454D-01
      0.5094790000D+01  0.1903731086D+00
      0.1158790000D+01  0.8521614860D+00
 S   1 1.00       0.000000000000
      0.3258400000D+00  0.1000000000D+01
 S   1 1.00       0.000000000000
      0.1027410000D+00  0.1000000000D+01
 S   1 1.00       0.000000000000
      0.3600000000D-01  0.1000000000D+01
 P   1 1.00       0.000000000000
      0.7500000000D+00  0.1000000000D+01
 ****
      4 0
 S   3 1.00       0.000000000000
      0.3386500000D+02  0.2549381454D-01
      0.5094790000D+01  0.1903731086D+00
      0.1158790000D+01  0.8521614860D+00
 S   1 1.00       0.000000000000
      0.3258400000D+00  0.1000000000D+01
 S   1 1.00       0.000000000000
      0.1027410000D+00  0.1000000000D+01
 S   1 1.00       0.000000000000
      0.3600000000D-01  0.1000000000D+01
 P   1 1.00       0.000000000000
      0.7500000000D+00  0.1000000000D+01
 ****
      5 0
 S   3 1.00       0.000000000000
      0.3386500000D+02  0.2549381454D-01
      0.5094790000D+01  0.1903731086D+00
      0.1158790000D+01  0.8521614860D+00
 S   1 1.00       0.000000000000
      0.3258400000D+00  0.1000000000D+01
 S   1 1.00       0.000000000000
      0.1027410000D+00  0.1000000000D+01
 S   1 1.00       0.000000000000
      0.3600000000D-01  0.1000000000D+01
 P   1 1.00       0.000000000000
      0.7500000000D+00  0.1000000000D+01
 ****
      6 0
 S   3 1.00       0.000000000000
      0.3386500000D+02  0.2549381454D-01
      0.5094790000D+01  0.1903731086D+00
      0.1158790000D+01  0.8521614860D+00
 S   1 1.00       0.000000000000
      0.3258400000D+00  0.1000000000D+01
 S   1 1.00       0.000000000000
      0.1027410000D+00  0.1000000000D+01
 S   1 1.00       0.000000000000
      0.3600000000D-01  0.1000000000D+01
 P   1 1.00       0.000000000000
      0.7500000000D+00  0.1000000000D+01
 ****

 There are    18 symmetry adapted cartesian basis functions of AG  symmetry.
 There are     2 symmetry adapted cartesian basis functions of B1G symmetry.
 There are     6 symmetry adapted cartesian basis functions of B2G symmetry.
 There are    11 symmetry adapted cartesian basis functions of B3G symmetry.
 There are     2 symmetry adapted cartesian basis functions of AU  symmetry.
 There are    18 symmetry adapted cartesian basis functions of B1U symmetry.
 There are    11 symmetry adapted cartesian basis functions of B2U symmetry.
 There are     6 symmetry adapted cartesian basis functions of B3U symmetry.
 There are    17 symmetry adapted basis functions of AG  symmetry.
 There are     2 symmetry adapted basis functions of B1G symmetry.
 There are     6 symmetry adapted basis functions of B2G symmetry.
 There are    11 symmetry adapted basis functions of B3G symmetry.
 There are     2 symmetry adapted basis functions of AU  symmetry.
 There are    17 symmetry adapted basis functions of B1U symmetry.
 There are    11 symmetry adapted basis functions of B2U symmetry.
 There are     6 symmetry adapted basis functions of B3U symmetry.
    72 basis functions,   108 primitive gaussians,    74 cartesian basis functions
     8 alpha electrons        8 beta electrons
       nuclear repulsion energy        33.3315613579 Hartrees.
 NAtoms=    6 NActive=    6 NUniq=    2 SFac= 4.00D+00 NAtFMM=   60 NAOKFM=F Big=F
 Integral buffers will be    131072 words long.
 Raffenetti 2 integral format.
 Two-electron integral symmetry is turned on.
 One-electron integrals computed using PRISM.
 NBasis=    72 RedAO= T EigKep=  1.45D-04  NBF=    17     2     6    11     2    17    11     6
 NBsUse=    72 1.00D-06 EigRej= -1.00D+00 NBFU=    17     2     6    11     2    17    11     6
 ExpMin= 3.60D-02 ExpMax= 4.56D+03 ExpMxC= 6.82D+02 IAcc=3 IRadAn=         5 AccDes= 0.00D+00
 Harris functional with IExCor=  402 and IRadAn=       5 diagonalized for initial guess.
 HarFok:  IExCor=  402 AccDes= 0.00D+00 IRadAn=         5 IDoV= 1 UseB2=F ITyADJ=14
 ICtDFT=  3500011 ScaDFX=  1.000000  1.000000  1.000000  1.000000
 FoFCou: FMM=F IPFlag=           0 FMFlag=      100000 FMFlg1=           0
         NFxFlg=           0 DoJE=T BraDBF=F KetDBF=T FulRan=T
         wScrn=  0.000000 ICntrl=       500 IOpCl=  0 I1Cent=   200000004 NGrid=           0
         NMat0=    1 NMatS0=      1 NMatT0=    0 NMatD0=    1 NMtDS0=    0 NMtDT0=    0
 Petite list used in FoFCou.
 Initial guess orbital symmetries:
       Occupied  (AG) (B1U) (AG) (B1U) (B2U) (AG) (B3G) (B3U)
       Virtual   (B2G) (AG) (B2U) (B1U) (B3G) (B3U) (AG) (AG) (B2U)
                 (B2G) (AG) (B1U) (B1U) (B2U) (B3G) (B1U) (B1U)
                 (B3G) (AG) (B2U) (AG) (B3U) (B1U) (B2G) (B2U)
                 (B1U) (B3G) (AG) (B3G) (B1U) (B1G) (B3U) (AU)
                 (AG) (B2U) (B3G) (AG) (B1U) (B2U) (B2G) (B3U)
                 (B1G) (B1U) (B3G) (B2G) (AU) (AG) (B1U) (AG) (B2U)
                 (B2U) (B3G) (B3U) (AG) (B1U) (B1U) (B2G) (B3G)
                 (AG) (B2U) (B3G) (B1U) (AG) (B1U)
 The electronic state of the initial guess is 1-AG.
 Keep R1 ints in memory in symmetry-blocked form, NReq=4362741.
 Requested convergence on RMS density matrix=1.00D-08 within 128 cycles.
 Requested convergence on MAX density matrix=1.00D-06.
 Requested convergence on             energy=1.00D-06.
 No special actions if energy rises.
 SCF Done:  E(RB3LYP) =  -78.6155139608     A.U. after    8 cycles
            NFock=  8  Conv=0.16D-08     -V/T= 2.0055

 **********************************************************************

            Population analysis using the SCF Density.

 **********************************************************************

 Orbital symmetries:
       Occupied  (AG) (B1U) (AG) (B1U) (B2U) (AG) (B3G) (B3U)
       Virtual   (B2G) (AG) (B1U) (B2U) (B3G) (B3U) (AG) (AG) (B2G)
                 (B1U) (B2U) (AG) (B1U) (B2U) (B3G) (B1U) (B3G)
                 (B1U) (AG) (B2U) (AG) (B1U) (B3U) (B2G) (B2U)
                 (B1U) (B3G) (AG) (B3G) (B1U) (B1G) (B3U) (AU)
                 (AG) (B3G) (B2U) (AG) (B1U) (B2U) (B2G) (B3U)
                 (B1G) (B1U) (B3G) (B2G) (AG) (AU) (B1U) (AG) (B2U)
                 (B2U) (B3G) (AG) (B1U) (B3U) (B1U) (B2G) (B3G)
                 (AG) (B2U) (B3G) (B1U) (AG) (B1U)
 The electronic state is 1-AG.
 Alpha  occ. eigenvalues --  -10.17555 -10.17468  -0.76659  -0.58513  -0.47444
 Alpha  occ. eigenvalues --   -0.42842  -0.36094  -0.28122
 Alpha virt. eigenvalues --   -0.01130   0.00077   0.01891   0.02212   0.05373
 Alpha virt. eigenvalues --    0.06640   0.08047   0.11193   0.12374   0.12773
 Alpha virt. eigenvalues --    0.14268   0.15408   0.15680   0.16426   0.17277
 Alpha virt. eigenvalues --    0.20187   0.34825   0.36260   0.43957   0.44391
 Alpha virt. eigenvalues --    0.51679   0.53441   0.54082   0.59968   0.64234
 Alpha virt. eigenvalues --    0.72765   0.73841   0.75547   0.77170   0.86317
 Alpha virt. eigenvalues --    0.99399   1.09182   1.10871   1.38203   1.42801
 Alpha virt. eigenvalues --    1.44466   1.59727   1.59915   1.59952   1.60907
 Alpha virt. eigenvalues --    1.76266   1.78886   1.96684   2.07685   2.10450
 Alpha virt. eigenvalues --    2.15150   2.15275   2.24106   2.33798   2.42874
 Alpha virt. eigenvalues --    2.56144   2.57078   2.69425   2.70952   2.71821
 Alpha virt. eigenvalues --    2.80145   2.88153   3.15392   3.42543   3.64987
 Alpha virt. eigenvalues --    3.81915   4.11555  23.74028  24.26619
     Molecular Orbital Coefficients:
                           4         5         6         7         8
                       (B1U)--O  (B2U)--O   (AG)--O  (B3G)--O  (B3U)--O
     Eigenvalues --    -0.58513  -0.47444  -0.42842  -0.36094  -0.28122
   1 1   C  1S         -0.06811   0.00000   0.00671   0.00000   0.00000
   2        2S         -0.10665   0.00000   0.01068   0.00000   0.00000
   3        2PX         0.00000   0.00000   0.00000   0.00000   0.18284
   4        2PY         0.00000   0.15329   0.00000   0.14239   0.00000
   5        2PZ         0.07673   0.00000   0.19642   0.00000   0.00000
   6        3S          0.28628   0.00000  -0.03252   0.00000   0.00000
   7        3PX         0.00000   0.00000   0.00000   0.00000   0.27830
   8        3PY         0.00000   0.20991   0.00000   0.19739   0.00000
   9        3PZ         0.10713   0.00000   0.26438   0.00000   0.00000
  10        4S          0.20750   0.00000   0.02489   0.00000   0.00000
  11        4PX         0.00000   0.00000   0.00000   0.00000   0.24143
  12        4PY         0.00000   0.12044   0.00000   0.14060   0.00000
  13        4PZ         0.05449   0.00000   0.14666   0.00000   0.00000
  14        5S         -0.01848   0.00000  -0.00722   0.00000   0.00000
  15        5PX         0.00000   0.00000   0.00000   0.00000   0.03263
  16        5PY         0.00000   0.00033   0.00000  -0.00277   0.00000
  17        5PZ         0.00272   0.00000   0.00142   0.00000   0.00000
  18        6D 0       -0.00431   0.00000  -0.01572   0.00000   0.00000
  19        6D+1        0.00000   0.00000   0.00000   0.00000  -0.02198
  20        6D-1        0.00000  -0.00318   0.00000   0.03524   0.00000
  21        6D+2       -0.00986   0.00000  -0.00947   0.00000   0.00000
  22        6D-2        0.00000   0.00000   0.00000   0.00000   0.00000
  23 2   C  1S          0.06811   0.00000   0.00671   0.00000   0.00000
  24        2S          0.10665   0.00000   0.01068   0.00000   0.00000
  25        2PX         0.00000   0.00000   0.00000   0.00000   0.18284
  26        2PY         0.00000   0.15329   0.00000  -0.14239   0.00000
  27        2PZ         0.07673   0.00000  -0.19642   0.00000   0.00000
  28        3S         -0.28628   0.00000  -0.03252   0.00000   0.00000
  29        3PX         0.00000   0.00000   0.00000   0.00000   0.27830
  30        3PY         0.00000   0.20991   0.00000  -0.19739   0.00000
  31        3PZ         0.10713   0.00000  -0.26438   0.00000   0.00000
  32        4S         -0.20750   0.00000   0.02489   0.00000   0.00000
  33        4PX         0.00000   0.00000   0.00000   0.00000   0.24143
  34        4PY         0.00000   0.12044   0.00000  -0.14060   0.00000
  35        4PZ         0.05449   0.00000  -0.14666   0.00000   0.00000
  36        5S          0.01848   0.00000  -0.00722   0.00000   0.00000
  37        5PX         0.00000   0.00000   0.00000   0.00000   0.03263
  38        5PY         0.00000   0.00033   0.00000   0.00277   0.00000
  39        5PZ         0.00272   0.00000  -0.00142   0.00000   0.00000
  40        6D 0        0.00431   0.00000  -0.01572   0.00000   0.00000
  41        6D+1        0.00000   0.00000   0.00000   0.00000   0.02198
  42        6D-1        0.00000   0.00318   0.00000   0.03524   0.00000
  43        6D+2        0.00986   0.00000  -0.00947   0.00000   0.00000
  44        6D-2        0.00000   0.00000   0.00000   0.00000   0.00000
  45 3   H  1S         -0.09114   0.09735   0.07820  -0.11839   0.00000
  46        2S         -0.11402   0.13293   0.10992  -0.17622   0.00000
  47        3S         -0.01775   0.03531   0.04432  -0.09804   0.00000
  48        4S         -0.00712   0.00970   0.00588  -0.01673   0.00000
  49        5PX         0.00000   0.00000   0.00000   0.00000   0.01511
  50        5PY         0.01356  -0.00857  -0.01176   0.00409   0.00000
  51        5PZ        -0.00406   0.01084  -0.00461  -0.00811   0.00000
  52 4   H  1S          0.09114   0.09735   0.07820   0.11839   0.00000
  53        2S          0.11402   0.13293   0.10992   0.17622   0.00000
  54        3S          0.01775   0.03531   0.04432   0.09804   0.00000
  55        4S          0.00712   0.00970   0.00588   0.01673   0.00000
  56        5PX         0.00000   0.00000   0.00000   0.00000   0.01511
  57        5PY        -0.01356  -0.00857  -0.01176  -0.00409   0.00000
  58        5PZ        -0.00406  -0.01084   0.00461  -0.00811   0.00000
  59 5   H  1S          0.09114  -0.09735   0.07820  -0.11839   0.00000
  60        2S          0.11402  -0.13293   0.10992  -0.17622   0.00000
  61        3S          0.01775  -0.03531   0.04432  -0.09804   0.00000
  62        4S          0.00712  -0.00970   0.00588  -0.01673   0.00000
  63        5PX         0.00000   0.00000   0.00000   0.00000   0.01511
  64        5PY         0.01356  -0.00857   0.01176  -0.00409   0.00000
  65        5PZ        -0.00406   0.01084   0.00461   0.00811   0.00000
  66 6   H  1S         -0.09114  -0.09735   0.07820   0.11839   0.00000
  67        2S         -0.11402  -0.13293   0.10992   0.17622   0.00000
  68        3S         -0.01775  -0.03531   0.04432   0.09804   0.00000
  69        4S         -0.00712  -0.00970   0.00588   0.01673   0.00000
  70        5PX         0.00000   0.00000   0.00000   0.00000   0.01511
  71        5PY        -0.01356  -0.00857   0.01176   0.00409   0.00000
  72        5PZ        -0.00406  -0.01084  -0.00461   0.00811   0.00000
                           9        10        11        12        13
                       (B2G)--V   (AG)--V  (B1U)--V  (B2U)--V  (B3G)--V
     Eigenvalues --    -0.01130   0.00077   0.01891   0.02212   0.05373
   1 1   C  1S          0.00000  -0.02075  -0.02318   0.00000   0.00000
   2        2S          0.00000  -0.03414  -0.03777   0.00000   0.00000
   3        2PX         0.17352   0.00000   0.00000   0.00000   0.00000
   4        2PY         0.00000   0.00000   0.00000  -0.06047   0.04100
   5        2PZ         0.00000   0.04369   0.01954   0.00000   0.00000
   6        3S          0.00000   0.11782   0.11816   0.00000   0.00000
   7        3PX         0.25786   0.00000   0.00000   0.00000   0.00000
   8        3PY         0.00000   0.00000   0.00000  -0.09906   0.04597
   9        3PZ         0.00000   0.06305   0.03694   0.00000   0.00000
  10        4S          0.00000   0.21951   0.40293   0.00000   0.00000
  11        4PX         0.46886   0.00000   0.00000   0.00000   0.00000
  12        4PY         0.00000   0.00000   0.00000  -0.11170   0.21145
  13        4PZ         0.00000   0.09861  -0.10081   0.00000   0.00000
  14        5S          0.00000   1.51242   4.35859   0.00000   0.00000
  15        5PX         0.65000   0.00000   0.00000   0.00000   0.00000
  16        5PY         0.00000   0.00000   0.00000  -0.80429   5.27770
  17        5PZ         0.00000   0.34608  -0.18020   0.00000   0.00000
  18        6D 0        0.00000   0.00484  -0.00399   0.00000   0.00000
  19        6D+1        0.02945   0.00000   0.00000   0.00000   0.00000
  20        6D-1        0.00000   0.00000   0.00000   0.01427  -0.00042
  21        6D+2        0.00000   0.00155   0.00150   0.00000   0.00000
  22        6D-2        0.00000   0.00000   0.00000   0.00000   0.00000
  23 2   C  1S          0.00000  -0.02075   0.02318   0.00000   0.00000
  24        2S          0.00000  -0.03414   0.03777   0.00000   0.00000
  25        2PX        -0.17352   0.00000   0.00000   0.00000   0.00000
  26        2PY         0.00000   0.00000   0.00000  -0.06047  -0.04100
  27        2PZ         0.00000  -0.04369   0.01954   0.00000   0.00000
  28        3S          0.00000   0.11782  -0.11816   0.00000   0.00000
  29        3PX        -0.25786   0.00000   0.00000   0.00000   0.00000
  30        3PY         0.00000   0.00000   0.00000  -0.09906  -0.04597
  31        3PZ         0.00000  -0.06305   0.03694   0.00000   0.00000
  32        4S          0.00000   0.21951  -0.40293   0.00000   0.00000
  33        4PX        -0.46886   0.00000   0.00000   0.00000   0.00000
  34        4PY         0.00000   0.00000   0.00000  -0.11170  -0.21145
  35        4PZ         0.00000  -0.09861  -0.10081   0.00000   0.00000
  36        5S          0.00000   1.51242  -4.35859   0.00000   0.00000
  37        5PX        -0.65000   0.00000   0.00000   0.00000   0.00000
  38        5PY         0.00000   0.00000   0.00000  -0.80429  -5.27770
  39        5PZ         0.00000  -0.34608  -0.18020   0.00000   0.00000
  40        6D 0        0.00000   0.00484   0.00399   0.00000   0.00000
  41        6D+1        0.02945   0.00000   0.00000   0.00000   0.00000
  42        6D-1        0.00000   0.00000   0.00000  -0.01427  -0.00042
  43        6D+2        0.00000   0.00155  -0.00150   0.00000   0.00000
  44        6D-2        0.00000   0.00000   0.00000   0.00000   0.00000
  45 3   H  1S          0.00000   0.00550   0.00036   0.00103  -0.00835
  46        2S          0.00000  -0.00729  -0.00259   0.01269  -0.05414
  47        3S          0.00000  -0.11655   0.18005   0.18468   0.61077
  48        4S          0.00000  -1.00187   1.65710   1.99748   6.17372
  49        5PX        -0.02299   0.00000   0.00000   0.00000   0.00000
  50        5PY         0.00000  -0.01347   0.00901   0.00939   0.00682
  51        5PZ         0.00000   0.00149  -0.00749  -0.00758  -0.00659
  52 4   H  1S          0.00000   0.00550  -0.00036   0.00103   0.00835
  53        2S          0.00000  -0.00729   0.00259   0.01269   0.05414
  54        3S          0.00000  -0.11655  -0.18005   0.18468  -0.61077
  55        4S          0.00000  -1.00187  -1.65710   1.99748  -6.17372
  56        5PX         0.02299   0.00000   0.00000   0.00000   0.00000
  57        5PY         0.00000  -0.01347  -0.00901   0.00939  -0.00682
  58        5PZ         0.00000  -0.00149  -0.00749   0.00758  -0.00659
  59 5   H  1S          0.00000   0.00550  -0.00036  -0.00103  -0.00835
  60        2S          0.00000  -0.00729   0.00259  -0.01269  -0.05414
  61        3S          0.00000  -0.11655  -0.18005  -0.18468   0.61077
  62        4S          0.00000  -1.00187  -1.65710  -1.99748   6.17372
  63        5PX         0.02299   0.00000   0.00000   0.00000   0.00000
  64        5PY         0.00000   0.01347   0.00901   0.00939  -0.00682
  65        5PZ         0.00000  -0.00149  -0.00749  -0.00758   0.00659
  66 6   H  1S          0.00000   0.00550   0.00036  -0.00103   0.00835
  67        2S          0.00000  -0.00729  -0.00259  -0.01269   0.05414
  68        3S          0.00000  -0.11655   0.18005  -0.18468  -0.61077
  69        4S          0.00000  -1.00187   1.65710  -1.99748  -6.17372
  70        5PX        -0.02299   0.00000   0.00000   0.00000   0.00000
  71        5PY         0.00000   0.01347  -0.00901   0.00939   0.00682
  72        5PZ         0.00000   0.00149  -0.00749   0.00758   0.00659
          Condensed to atoms (all electrons):
               1          2          3          4          5          6
     1  C    4.824446   0.651355  -0.036140   0.409436   0.409436  -0.036140
     2  C    0.651355   4.824446   0.409436  -0.036140  -0.036140   0.409436
     3  H   -0.036140   0.409436   0.566677  -0.015978   0.011116  -0.046307
     4  H    0.409436  -0.036140  -0.015978   0.566677  -0.046307   0.011116
     5  H    0.409436  -0.036140   0.011116  -0.046307   0.566677  -0.015978
     6  H   -0.036140   0.409436  -0.046307   0.011116  -0.015978   0.566677
 Mulliken charges:
               1
     1  C   -0.222393
     2  C   -0.222393
     3  H    0.111196
     4  H    0.111196
     5  H    0.111196
     6  H    0.111196
 Sum of Mulliken charges =   0.00000
 Mulliken charges with hydrogens summed into heavy atoms:
               1
     1  C    0.000000
     2  C    0.000000
 Electronic spatial extent (au):  <R**2>=             83.4077
 Charge=              0.0000 electrons
 Dipole moment (field-independent basis, Debye):
    X=             -0.0000    Y=              0.0000    Z=             -0.0000  Tot=              0.0000
 Quadrupole moment (field-independent basis, Debye-Ang):
   XX=            -15.9163   YY=            -12.4567   ZZ=            -12.3839
   XY=              0.0000   XZ=              0.0000   YZ=             -0.0000
 Traceless Quadrupole moment (field-independent basis, Debye-Ang):
   XX=             -2.3307   YY=              1.1290   ZZ=              1.2018
   XY=              0.0000   XZ=              0.0000   YZ=             -0.0000
 Octapole moment (field-independent basis, Debye-Ang**2):
  XXX=             -0.0000  YYY=             -0.0000  ZZZ=             -0.0000  XYY=             -0.0000
  XXY=              0.0000  XXZ=             -0.0000  XZZ=             -0.0000  YZZ=              0.0000
  YYZ=              0.0000  XYZ=             -0.0000
 Hexadecapole moment (field-independent basis, Debye-Ang**3):
 XXXX=            -20.8099 YYYY=            -28.1379 ZZZZ=            -70.1391 XXXY=             -0.0000
 XXXZ=              0.0000 YYYX=             -0.0000 YYYZ=             -0.0000 ZZZX=              0.0000
 ZZZY=             -0.0000 XXYY=             -8.8578 XXZZ=            -16.2071 YYZZ=            -13.7780
 XXYZ=              0.0000 YYXZ=              0.0000 ZZXY=              0.0000
 N-N= 3.333156135787D+01 E-N=-2.484172998711D+02  KE= 7.818324479998D+01
 Symmetry AG   KE= 3.760780832071D+01
 Symmetry B1G  KE=-6.352747104406D-21
 Symmetry B2G  KE= 6.352747104419D-21
 Symmetry B3G  KE= 2.119449375469D+00
 Symmetry AU   KE= 1.431178094294D-33
 Symmetry B1U  KE= 3.447813951909D+01
 Symmetry B2U  KE= 1.910043879126D+00
 Symmetry B3U  KE= 2.067803705577D+00
 Orbital energies and kinetic energies (alpha):
                                 1                 2
   4         (B1U)--O         -0.585132          1.282881
   5         (B2U)--O         -0.474438          0.955022
   6         (AG)--O          -0.428419          1.305933
   7         (B3G)--O         -0.360943          1.059725
   8         (B3U)--O         -0.281219          1.033902
   9         (B2G)--V         -0.011300          0.988646
  10         (AG)--V           0.000771          0.210161
  11         (B1U)--V          0.018910          0.203964
  12         (B2U)--V          0.022124          0.185267
  13         (B3G)--V          0.053726          0.136461
 Total kinetic energy from orbitals= 7.818324479998D+01
 Calling FoFJK, ICntrl=      2127 FMM=F ISym2X=1 I1Cent= 0 IOpClX= 0 NMat=1 NMatS=1 NMatT=0.
 ***** Axes restored to original set *****
 -------------------------------------------------------------------
 Center     Atomic                   Forces (Hartrees/Bohr)
 Number     Number              X              Y              Z
 -------------------------------------------------------------------
      1        6          -0.000000000   -0.000000000   -0.000610508
      2        6          -0.000000000    0.000000000    0.000610508
      3        1           0.000000000   -0.001329867    0.001136021
      4        1           0.000000000   -0.001329867   -0.001136021
      5        1           0.000000000    0.001329867   -0.001136021
      6        1           0.000000000    0.001329867    0.001136021
 -------------------------------------------------------------------
 Cartesian Forces:  Max     0.001329867 RMS     0.000849241

 GradGradGradGradGradGradGradGradGradGradGradGradGradGradGradGradGradGrad
 Berny optimization.
 FormGI is forming the generalized inverse of G from B-inverse, IUseBI=4.
 Internal  Forces:  Max     0.002882551 RMS     0.001173578
 Search for a local minimum.
 Step number   1 out of a maximum of   25
 All quantities printed in internal units (Hartrees-Bohrs-Radians)
 Mixed Optimization -- RFO/linear search
 Second derivative matrix not updated -- first step.
 The second derivative matrix:
                          R1        R2        R3        R4        R5
           R1           0.59261
           R2           0.00000   0.35093
           R3           0.00000   0.00000   0.35093
           R4           0.00000   0.00000   0.00000   0.35093
           R5           0.00000   0.00000   0.00000   0.00000   0.35093
           A1           0.00000   0.00000   0.00000   0.00000   0.00000
           A2           0.00000   0.00000   0.00000   0.00000   0.00000
           A3           0.00000   0.00000   0.00000   0.00000   0.00000
           A4           0.00000   0.00000   0.00000   0.00000   0.00000
           A5           0.00000   0.00000   0.00000   0.00000   0.00000
           A6           0.00000   0.00000   0.00000   0.00000   0.00000
           D1           0.00000   0.00000   0.00000   0.00000   0.00000
           D2           0.00000   0.00000   0.00000   0.00000   0.00000
           D3           0.00000   0.00000   0.00000   0.00000   0.00000
           D4           0.00000   0.00000   0.00000   0.00000   0.00000
                          A1        A2        A3        A4        A5
           A1           0.16000
           A2           0.00000   0.16000
           A3           0.00000   0.00000   0.16000
           A4           0.00000   0.00000   0.00000   0.16000
           A5           0.00000   0.00000   0.00000   0.00000   0.16000
           A6           0.00000   0.00000   0.00000   0.00000   0.00000
           D1           0.00000   0.00000   0.00000   0.00000   0.00000
           D2           0.00000   0.00000   0.00000   0.00000   0.00000
           D3           0.00000   0.00000   0.00000   0.00000   0.00000
           D4           0.00000   0.00000   0.00000   0.00000   0.00000
                          A6        D1        D2        D3        D4
           A6           0.16000
           D1           0.00000   0.03001
           D2           0.00000   0.00000   0.03001
           D3           0.00000   0.00000   0.00000   0.03001
           D4           0.00000   0.00000   0.00000   0.00000   0.03001
 ITU=  0
     Eigenvalues ---    0.03001   0.03001   0.03001   0.16000   0.16000
     Eigenvalues ---    0.16000   0.16000   0.35093   0.35093   0.35093
     Eigenvalues ---    0.35093   0.59261
 RFO step:  Lambda=-5.05493722D-05 EMin= 3.00096441D-02
 Linear search not attempted -- first point.
 Iteration  1 RMS(Cart)=  0.00402522 RMS(Int)=  0.00000251
 Iteration  2 RMS(Cart)=  0.00000285 RMS(Int)=  0.00000000
 Iteration  3 RMS(Cart)=  0.00000000 RMS(Int)=  0.00000000
 ClnCor:  largest displacement from symmetrization is 1.30D-13 for atom     1.
 Variable       Old X    -DE/DX   Delta X   Delta X   Delta X     New X
                                 (Linear)    (Quad)   (Total)
    R1        2.51530  -0.00288   0.00000  -0.00486  -0.00486   2.51044
    R2        2.05524  -0.00173   0.00000  -0.00493  -0.00493   2.05031
    R3        2.05524  -0.00173   0.00000  -0.00493  -0.00493   2.05031
    R4        2.05524  -0.00173   0.00000  -0.00493  -0.00493   2.05031
    R5        2.05524  -0.00173   0.00000  -0.00493  -0.00493   2.05031
    A1        2.12618  -0.00018   0.00000  -0.00113  -0.00113   2.12505
    A2        2.12618  -0.00018   0.00000  -0.00113  -0.00113   2.12505
    A3        2.03083   0.00036   0.00000   0.00226   0.00226   2.03309
    A4        2.12618  -0.00018   0.00000  -0.00113  -0.00113   2.12505
    A5        2.12618  -0.00018   0.00000  -0.00113  -0.00113   2.12505
    A6        2.03083   0.00036   0.00000   0.00226   0.00226   2.03309
    D1       -0.00000  -0.00000   0.00000  -0.00000   0.00000   0.00000
    D2        3.14159  -0.00000   0.00000  -0.00000   0.00000   3.14159
    D3        3.14159   0.00000   0.00000   0.00000   0.00000   3.14159
    D4        0.00000  -0.00000   0.00000  -0.00000   0.00000   0.00000
         Item               Value     Threshold  Converged?
 Maximum Force            0.002883     0.000450     NO 
 RMS     Force            0.001174     0.000300     NO 
 Maximum Displacement     0.006999     0.001800     NO 
 RMS     Displacement     0.004024     0.001200     NO 
 Predicted change in Energy=-2.527469D-05
 GradGradGradGradGradGradGradGradGradGradGradGradGradGradGradGradGradGrad

                          Input orientation:                          
 ---------------------------------------------------------------------
 Center     Atomic      Atomic             Coordinates (Angstroms)
 Number     Number       Type             X           Y           Z
 ---------------------------------------------------------------------
      1          6           0       -0.000000    0.000000    0.664233
      2          6           0        0.000000    0.000000   -0.664233
      3          1           0        0.000000    0.922551   -1.235266
      4          1           0       -0.000000    0.922551    1.235266
      5          1           0       -0.000000   -0.922551    1.235266
      6          1           0        0.000000   -0.922551   -1.235266
 ---------------------------------------------------------------------
                    Distance matrix (angstroms):
                    1          2          3          4          5
     1  C    0.000000
     2  C    1.328466   0.000000
     3  H    2.111681   1.084979   0.000000
     4  H    1.084979   2.111681   2.470532   0.000000
     5  H    1.084979   2.111681   3.083493   1.845102   0.000000
     6  H    2.111681   1.084979   1.845102   3.083493   2.470532
                    6
     6  H    0.000000
 Stoichiometry    C2H4
 Framework group  D2H[C2"(C.C),SG(H4)]
 Deg. of freedom     3
 Full point group                 D2H     NOp   8
 Largest Abelian subgroup         D2H     NOp   8
 Largest concise Abelian subgroup D2      NOp   4
                         Standard orientation:                         
 ---------------------------------------------------------------------
 Center     Atomic      Atomic             Coordinates (Angstroms)
 Number     Number       Type             X           Y           Z
 ---------------------------------------------------------------------
      1          6           0        0.000000   -0.000000    0.664233
      2          6           0        0.000000   -0.000000   -0.664233
      3          1           0       -0.000000    0.922551   -1.235266
      4          1           0       -0.000000    0.922551    1.235266
      5          1           0       -0.000000   -0.922551    1.235266
      6          1           0       -0.000000   -0.922551   -1.235266
 ---------------------------------------------------------------------
 Rotational constants (GHZ):         147.2960905          30.1894989          25.0544012
 Standard basis: 6-311++G(d,p) (5D, 7F)
 There are    18 symmetry adapted cartesian basis functions of AG  symmetry.
 There are     2 symmetry adapted cartesian basis functions of B1G symmetry.
 There are     6 symmetry adapted cartesian basis functions of B2G symmetry.
 There are    11 symmetry adapted cartesian basis functions of B3G symmetry.
 There are     2 symmetry adapted cartesian basis functions of AU  symmetry.
 There are    18 symmetry adapted cartesian basis functions of B1U symmetry.
 There are    11 symmetry adapted cartesian basis functions of B2U symmetry.
 There are     6 symmetry adapted cartesian basis functions of B3U symmetry.
 There are    17 symmetry adapted basis functions of AG  symmetry.
 There are     2 symmetry adapted basis functions of B1G symmetry.
 There are     6 symmetry adapted basis functions of B2G symmetry.
 There are    11 symmetry adapted basis functions of B3G symmetry.
 There are     2 symmetry adapted basis functions of AU  symmetry.
 There are    17 symmetry adapted basis functions of B1U symmetry.
 There are    11 symmetry adapted basis functions of B2U symmetry.
 There are     6 symmetry adapted basis functions of B3U symmetry.
    72 basis functions,   108 primitive gaussians,    74 cartesian basis functions
     8 alpha electrons        8 beta electrons
       nuclear repulsion energy        33.4051713220 Hartrees.
 NAtoms=    6 NActive=    6 NUniq=    2 SFac= 4.00D+00 NAtFMM=   60 NAOKFM=F Big=F
 Integral buffers will be    131072 words long.
 Raffenetti 2 integral format.
 Two-electron integral symmetry is turned on.
 One-electron integrals computed using PRISM.
 NBasis=    72 RedAO= T EigKep=  1.43D-04  NBF=    17     2     6    11     2    17    11     6
 NBsUse=    72 1.00D-06 EigRej= -1.00D+00 NBFU=    17     2     6    11     2    17    11     6
 Initial guess from the checkpoint file:  "geometry.chk"
 B after Tr=    -0.000000   -0.000000   -0.000000
         Rot=    1.000000    0.000000    0.000000   -0.000000 Ang=   0.00 deg.
 Initial guess orbital symmetries:
       Occupied  (AG) (B1U) (AG) (B1U) (B2U) (AG) (B3G) (B3U)
       Virtual   (B2G) (AG) (B1U) (B2U) (B3G) (B3U) (AG) (AG) (B2G)
                 (B1U) (B2U) (AG) (B1U) (B2U) (B3G) (B1U) (B3G)
                 (B1U) (AG) (B2U) (AG) (B1U) (B3U) (B2G) (B2U)
                 (B1U) (B3G) (AG) (B3G) (B1U) (B1G) (B3U) (AU)
                 (AG) (B3G) (B2U) (AG) (B1U) (B2U) (B2G) (B3U)
                 (B1G) (B1U) (B3G) (B2G) (AG) (AU) (B1U) (AG) (B2U)
                 (B2U) (B3G) (AG) (B1U) (B3U) (B1U) (B2G) (B3G)
                 (AG) (B2U) (B3G) (B1U) (AG) (B1U)
 Keep R1 ints in memory in symmetry-blocked form, NReq=4362741.
 Requested convergence on RMS density matrix=1.00D-08 within 128 cycles.
 Requested convergence on MAX density matrix=1.00D-06.
 Requested convergence on             energy=1.00D-06.
 No special actions if energy rises.
 SCF Done:  E(RB3LYP) =  -78.6155381303     A.U. after    6 cycles
            NFock=  6  Conv=0.39D-08     -V/T= 2.0052
 Calling FoFJK, ICntrl=      2127 FMM=F ISym2X=1 I1Cent= 0 IOpClX= 0 NMat=1 NMatS=1 NMatT=0.
 ***** Axes restored to original set *****
 -------------------------------------------------------------------
 Center     Atomic                   Forces (Hartrees/Bohr)
 Number     Number              X              Y              Z
 -------------------------------------------------------------------
      1        6          -0.000000000   -0.000000000    0.000478270
      2        6          -0.000000000   -0.000000000   -0.000478270
      3        1           0.000000000    0.000047545    0.000020165
      4        1           0.000000000    0.000047545   -0.000020165
      5        1           0.000000000   -0.000047545   -0.000020165
      6        1           0.000000000   -0.000047545    0.000020165
 -------------------------------------------------------------------
 Cartesian Forces:  Max     0.000478270 RMS     0.000161272

 GradGradGradGradGradGradGradGradGradGradGradGradGradGradGradGradGradGrad
 Berny optimization.
 Using GEDIIS/GDIIS optimizer.
 FormGI is forming the generalized inverse of G from B-inverse, IUseBI=4.
 Internal  Forces:  Max     0.000437941 RMS     0.000116994
 Search for a local minimum.
 Step number   2 out of a maximum of   25
 All quantities printed in internal units (Hartrees-Bohrs-Radians)
 Mixed Optimization -- En-DIIS/RFO-DIIS
 Update second derivatives using D2CorX and points    1    2
 DE= -2.42D-05 DEPred=-2.53D-05 R= 9.56D-01
 TightC=F SS=  1.41D+00  RLast= 1.17D-02 DXNew= 5.0454D-01 3.4993D-02
 Trust test= 9.56D-01 RLast= 1.17D-02 DXMaxT set to 3.00D-01
 The second derivative matrix:
                          R1        R2        R3        R4        R5
           R1           0.63676
           R2           0.01186   0.35030
           R3           0.01186  -0.00063   0.35030
           R4           0.01186  -0.00063  -0.00063   0.35030
           R5           0.01186  -0.00063  -0.00063  -0.00063   0.35030
           A1          -0.00076  -0.00113  -0.00113  -0.00113  -0.00113
           A2          -0.00076  -0.00113  -0.00113  -0.00113  -0.00113
           A3           0.00153   0.00225   0.00225   0.00225   0.00225
           A4          -0.00076  -0.00113  -0.00113  -0.00113  -0.00113
           A5          -0.00076  -0.00113  -0.00113  -0.00113  -0.00113
           A6           0.00153   0.00225   0.00225   0.00225   0.00225
           D1           0.00000   0.00000   0.00000   0.00000   0.00000
           D2          -0.00000  -0.00000  -0.00000  -0.00000  -0.00000
           D3           0.00000   0.00000   0.00000   0.00000   0.00000
           D4          -0.00000  -0.00000  -0.00000  -0.00000  -0.00000
                          A1        A2        A3        A4        A5
           A1           0.15979
           A2          -0.00021   0.15979
           A3           0.00042   0.00042   0.15916
           A4          -0.00021  -0.00021   0.00042   0.15979
           A5          -0.00021  -0.00021   0.00042  -0.00021   0.15979
           A6           0.00042   0.00042  -0.00084   0.00042   0.00042
           D1           0.00000   0.00000  -0.00000   0.00000   0.00000
           D2          -0.00000  -0.00000   0.00000  -0.00000  -0.00000
           D3           0.00000   0.00000  -0.00000   0.00000   0.00000
           D4          -0.00000  -0.00000   0.00000  -0.00000  -0.00000
                          A6        D1        D2        D3        D4
           A6           0.15916
           D1          -0.00000   0.03001
           D2           0.00000  -0.00000   0.03001
           D3          -0.00000   0.00000  -0.00000   0.03001
           D4           0.00000  -0.00000   0.00000  -0.00000   0.03001
 ITU=  1  0
 Use linear search instead of GDIIS.
     Eigenvalues ---    0.03001   0.03001   0.03001   0.15716   0.16000
     Eigenvalues ---    0.16000   0.16000   0.34679   0.35093   0.35093
     Eigenvalues ---    0.35093   0.63872
 RFO step:  Lambda=-2.65005613D-07 EMin= 3.00096441D-02
 Quartic linear search produced a step of -0.04371.
 Iteration  1 RMS(Cart)=  0.00017748 RMS(Int)=  0.00000002
 Iteration  2 RMS(Cart)=  0.00000002 RMS(Int)=  0.00000000
 ClnCor:  largest displacement from symmetrization is 9.30D-14 for atom     2.
 Variable       Old X    -DE/DX   Delta X   Delta X   Delta X     New X
                                 (Linear)    (Quad)   (Total)
    R1        2.51044   0.00044   0.00021   0.00047   0.00068   2.51112
    R2        2.05031   0.00003   0.00022  -0.00016   0.00005   2.05037
    R3        2.05031   0.00003   0.00022  -0.00016   0.00005   2.05037
    R4        2.05031   0.00003   0.00022  -0.00016   0.00005   2.05037
    R5        2.05031   0.00003   0.00022  -0.00016   0.00005   2.05037
    A1        2.12505  -0.00003   0.00005  -0.00023  -0.00018   2.12487
    A2        2.12505  -0.00003   0.00005  -0.00023  -0.00018   2.12487
    A3        2.03309   0.00006  -0.00010   0.00046   0.00036   2.03345
    A4        2.12505  -0.00003   0.00005  -0.00023  -0.00018   2.12487
    A5        2.12505  -0.00003   0.00005  -0.00023  -0.00018   2.12487
    A6        2.03309   0.00006  -0.00010   0.00046   0.00036   2.03345
    D1        0.00000  -0.00000   0.00000  -0.00000  -0.00000   0.00000
    D2        3.14159  -0.00000   0.00000  -0.00000   0.00000   3.14159
    D3        3.14159   0.00000   0.00000   0.00000   0.00000   3.14159
    D4        0.00000  -0.00000   0.00000  -0.00000   0.00000   0.00000
         Item               Value     Threshold  Converged?
 Maximum Force            0.000438     0.000450     YES
 RMS     Force            0.000117     0.000300     YES
 Maximum Displacement     0.000340     0.001800     YES
 RMS     Displacement     0.000177     0.001200     YES
 Predicted change in Energy=-1.832389D-07
 Optimization completed.
    -- Stationary point found.
                           ----------------------------
                           !   Optimized Parameters   !
                           ! (Angstroms and Degrees)  !
 --------------------------                            --------------------------
 ! Name  Definition              Value          Derivative Info.                !
 --------------------------------------------------------------------------------
 ! R1    R(1,2)                  1.3285         -DE/DX =    0.0004              !
 ! R2    R(1,4)                  1.085          -DE/DX =    0.0                 !
 ! R3    R(1,5)                  1.085          -DE/DX =    0.0                 !
 ! R4    R(2,3)                  1.085          -DE/DX =    0.0                 !
 ! R5    R(2,6)                  1.085          -DE/DX =    0.0                 !
 ! A1    A(2,1,4)              121.7563         -DE/DX =    0.0                 !
 ! A2    A(2,1,5)              121.7563         -DE/DX =    0.0                 !
 ! A3    A(4,1,5)              116.4873         -DE/DX =    0.0001              !
 ! A4    A(1,2,3)              121.7563         -DE/DX =    0.0                 !
 ! A5    A(1,2,6)              121.7563         -DE/DX =    0.0                 !
 ! A6    A(3,2,6)              116.4873         -DE/DX =    0.0001              !
 ! D1    D(4,1,2,3)              0.0            -DE/DX =    0.0                 !
 ! D2    D(4,1,2,6)            180.0            -DE/DX =    0.0                 !
 ! D3    D(5,1,2,3)            180.0            -DE/DX =    0.0                 !
 ! D4    D(5,1,2,6)              0.0            -DE/DX =    0.0                 !
 --------------------------------------------------------------------------------
 GradGradGradGradGradGradGradGradGradGradGradGradGradGradGradGradGradGrad

                          Input orientation:                          
 ---------------------------------------------------------------------
 Center     Atomic      Atomic             Coordinates (Angstroms)
 Number     Number       Type             X           Y           Z
 ---------------------------------------------------------------------
      1          6           0       -0.000000   -0.000000    0.664233
      2          6           0        0.000000    0.000000   -0.664233
      3          1           0        0.000000    0.922551   -1.235266
      4          1           0       -0.000000    0.922551    1.235266
      5          1           0       -0.000000   -0.922551    1.235266
      6          1           0       -0.000000   -0.922551   -1.235266
 ---------------------------------------------------------------------
                    Distance matrix (angstroms):
                    1          2          3          4          5
     1  C    0.000000
     2  C    1.328466   0.000000
     3  H    2.111681   1.084979   0.000000
     4  H    1.084979   2.111681   2.470532   0.000000
     5  H    1.084979   2.111681   3.083493   1.845102   0.000000
     6  H    2.111681   1.084979   1.845102   3.083493   2.470532
                    6
     6  H    0.000000
 Stoichiometry    C2H4
 Framework group  D2H[C2"(C.C),SG(H4)]
 Deg. of freedom     3
 Full point group                 D2H     NOp   8
 Largest Abelian subgroup         D2H     NOp   8
 Largest concise Abelian subgroup D2      NOp   4
                         Standard orientation:                         
 ---------------------------------------------------------------------
 Center     Atomic      Atomic             Coordinates (Angstroms)
 Number     Number       Type             X           Y           Z
 ---------------------------------------------------------------------
      1          6           0        0.000000    0.000000    0.664233
      2          6           0        0.000000    0.000000   -0.664233
      3          1           0       -0.000000    0.922551   -1.235266
      4          1           0       -0.000000    0.922551    1.235266
      5          1           0       -0.000000   -0.922551    1.235266
      6          1           0       -0.000000   -0.922551   -1.235266
 ---------------------------------------------------------------------
 Rotational constants (GHZ):         147.2960905          30.1894989          25.0544012

 **********************************************************************

            Population analysis using the SCF Density.

 **********************************************************************

 Orbital symmetries:
       Occupied  (AG) (B1U) (AG) (B1U) (B2U) (AG) (B3G) (B3U)
       Virtual   (B2G) (AG) (B1U) (B2U) (B3G) (B3U) (AG) (AG) (B2G)
                 (B1U) (B2U) (AG) (B1U) (B2U) (B3G) (B1U) (B3G)
                 (B1U) (AG) (B2U) (AG) (B1U) (B3U) (B2G) (B2U)
                 (B1U) (B3G) (AG) (B3G) (B1U) (B1G) (B3U) (AU)
                 (AG) (B3G) (B2U) (AG) (B1U) (B2U) (B2G) (B3U)
                 (B1G) (B1U) (B3G) (B2G) (AG) (AU) (B1U) (AG) (B2U)
                 (B2U) (B3G) (AG) (B1U) (B3U) (B1U) (B2G) (B3G)
                 (AG) (B2U) (B3G) (B1U) (AG) (B1U)
 The electronic state is 1-AG.
 Alpha  occ. eigenvalues --  -10.17451 -10.17362  -0.76745  -0.58546  -0.47545
 Alpha  occ. eigenvalues --   -0.42861  -0.36121  -0.28156
 Alpha virt. eigenvalues --   -0.01077   0.00086   0.01910   0.02219   0.05381
 Alpha virt. eigenvalues --    0.06638   0.08055   0.11197   0.12395   0.12790
 Alpha virt. eigenvalues --    0.14269   0.15448   0.15702   0.16537   0.17287
 Alpha virt. eigenvalues --    0.20273   0.34921   0.36362   0.43914   0.44489
 Alpha virt. eigenvalues --    0.51752   0.53567   0.54063   0.60005   0.64269
 Alpha virt. eigenvalues --    0.72890   0.74037   0.75592   0.77294   0.86424
 Alpha virt. eigenvalues --    0.99376   1.09320   1.10933   1.38277   1.42792
 Alpha virt. eigenvalues --    1.44592   1.59952   1.60154   1.60199   1.61114
 Alpha virt. eigenvalues --    1.76461   1.79078   1.96818   2.08056   2.10594
 Alpha virt. eigenvalues --    2.15310   2.15741   2.24087   2.34265   2.43021
 Alpha virt. eigenvalues --    2.56400   2.57081   2.69446   2.71151   2.71898
 Alpha virt. eigenvalues --    2.80761   2.88272   3.16016   3.43178   3.65458
 Alpha virt. eigenvalues --    3.82614   4.11849  23.74496  24.27816
     Molecular Orbital Coefficients:
                           4         5         6         7         8
                       (B1U)--O  (B2U)--O   (AG)--O  (B3G)--O  (B3U)--O
     Eigenvalues --    -0.58546  -0.47545  -0.42861  -0.36121  -0.28156
   1 1   C  1S         -0.06812   0.00000   0.00673   0.00000   0.00000
   2        2S         -0.10666   0.00000   0.01073   0.00000   0.00000
   3        2PX         0.00000   0.00000   0.00000   0.00000   0.18286
   4        2PY         0.00000   0.15347   0.00000   0.14260   0.00000
   5        2PZ         0.07685   0.00000   0.19672   0.00000   0.00000
   6        3S          0.28601   0.00000  -0.03252   0.00000   0.00000
   7        3PX         0.00000   0.00000   0.00000   0.00000   0.27828
   8        3PY         0.00000   0.20978   0.00000   0.19741   0.00000
   9        3PZ         0.10719   0.00000   0.26444   0.00000   0.00000
  10        4S          0.20719   0.00000   0.02492   0.00000   0.00000
  11        4PX         0.00000   0.00000   0.00000   0.00000   0.24118
  12        4PY         0.00000   0.12018   0.00000   0.14037   0.00000
  13        4PZ         0.05438   0.00000   0.14661   0.00000   0.00000
  14        5S         -0.01848   0.00000  -0.00731   0.00000   0.00000
  15        5PX         0.00000   0.00000   0.00000   0.00000   0.03249
  16        5PY         0.00000   0.00036   0.00000  -0.00331   0.00000
  17        5PZ         0.00267   0.00000   0.00134   0.00000   0.00000
  18        6D 0       -0.00433   0.00000  -0.01579   0.00000   0.00000
  19        6D+1        0.00000   0.00000   0.00000   0.00000  -0.02204
  20        6D-1        0.00000  -0.00329   0.00000   0.03532   0.00000
  21        6D+2       -0.00990   0.00000  -0.00949   0.00000   0.00000
  22        6D-2        0.00000   0.00000   0.00000   0.00000   0.00000
  23 2   C  1S          0.06812   0.00000   0.00673   0.00000   0.00000
  24        2S          0.10666   0.00000   0.01073   0.00000   0.00000
  25        2PX         0.00000   0.00000   0.00000   0.00000   0.18286
  26        2PY         0.00000   0.15347   0.00000  -0.14260   0.00000
  27        2PZ         0.07685   0.00000  -0.19672   0.00000   0.00000
  28        3S         -0.28601   0.00000  -0.03252   0.00000   0.00000
  29        3PX         0.00000   0.00000   0.00000   0.00000   0.27828
  30        3PY         0.00000   0.20978   0.00000  -0.19741   0.00000
  31        3PZ         0.10719   0.00000  -0.26444   0.00000   0.00000
  32        4S         -0.20719   0.00000   0.02492   0.00000   0.00000
  33        4PX         0.00000   0.00000   0.00000   0.00000   0.24118
  34        4PY         0.00000   0.12018   0.00000  -0.14037   0.00000
  35        4PZ         0.05438   0.00000  -0.14661   0.00000   0.00000
  36        5S          0.01848   0.00000  -0.00731   0.00000   0.00000
  37        5PX         0.00000   0.00000   0.00000   0.00000   0.03249
  38        5PY         0.00000   0.00036   0.00000   0.00331   0.00000
  39        5PZ         0.00267   0.00000  -0.00134   0.00000   0.00000
  40        6D 0        0.00433   0.00000  -0.01579   0.00000   0.00000
  41        6D+1        0.00000   0.00000   0.00000   0.00000   0.02204
  42        6D-1        0.00000   0.00329   0.00000   0.03532   0.00000
  43        6D+2        0.00990   0.00000  -0.00949   0.00000   0.00000
  44        6D-2        0.00000   0.00000   0.00000   0.00000   0.00000
  45 3   H  1S         -0.09134   0.09749   0.07824  -0.11856   0.00000
  46        2S         -0.11403   0.13284   0.10982  -0.17622   0.00000
  47        3S         -0.01777   0.03496   0.04426  -0.09811   0.00000
  48        4S         -0.00714   0.00963   0.00589  -0.01701   0.00000
  49        5PX         0.00000   0.00000   0.00000   0.00000   0.01515
  50        5PY         0.01358  -0.00863  -0.01178   0.00412   0.00000
  51        5PZ        -0.00402   0.01088  -0.00468  -0.00814   0.00000
  52 4   H  1S          0.09134   0.09749   0.07824   0.11856   0.00000
  53        2S          0.11403   0.13284   0.10982   0.17622   0.00000
  54        3S          0.01777   0.03496   0.04426   0.09811   0.00000
  55        4S          0.00714   0.00963   0.00589   0.01701   0.00000
  56        5PX         0.00000   0.00000   0.00000   0.00000   0.01515
  57        5PY        -0.01358  -0.00863  -0.01178  -0.00412   0.00000
  58        5PZ        -0.00402  -0.01088   0.00468  -0.00814   0.00000
  59 5   H  1S          0.09134  -0.09749   0.07824  -0.11856   0.00000
  60        2S          0.11403  -0.13284   0.10982  -0.17622   0.00000
  61        3S          0.01777  -0.03496   0.04426  -0.09811   0.00000
  62        4S          0.00714  -0.00963   0.00589  -0.01701   0.00000
  63        5PX         0.00000   0.00000   0.00000   0.00000   0.01515
  64        5PY         0.01358  -0.00863   0.01178  -0.00412   0.00000
  65        5PZ        -0.00402   0.01088   0.00468   0.00814   0.00000
  66 6   H  1S         -0.09134  -0.09749   0.07824   0.11856   0.00000
  67        2S         -0.11403  -0.13284   0.10982   0.17622   0.00000
  68        3S         -0.01777  -0.03496   0.04426   0.09811   0.00000
  69        4S         -0.00714  -0.00963   0.00589   0.01701   0.00000
  70        5PX         0.00000   0.00000   0.00000   0.00000   0.01515
  71        5PY        -0.01358  -0.00863   0.01178   0.00412   0.00000
  72        5PZ        -0.00402  -0.01088  -0.00468   0.00814   0.00000
                           9        10        11        12        13
                       (B2G)--V   (AG)--V  (B1U)--V  (B2U)--V  (B3G)--V
     Eigenvalues --    -0.01077   0.00086   0.01910   0.02219   0.05381
   1 1   C  1S          0.00000  -0.02070  -0.02302   0.00000   0.00000
   2        2S          0.00000  -0.03406  -0.03751   0.00000   0.00000
   3        2PX         0.17320   0.00000   0.00000   0.00000   0.00000
   4        2PY         0.00000   0.00000   0.00000  -0.06017   0.04081
   5        2PZ         0.00000   0.04351   0.01950   0.00000   0.00000
   6        3S          0.00000   0.11760   0.11734   0.00000   0.00000
   7        3PX         0.25746   0.00000   0.00000   0.00000   0.00000
   8        3PY         0.00000   0.00000   0.00000  -0.09855   0.04537
   9        3PZ         0.00000   0.06273   0.03693   0.00000   0.00000
  10        4S          0.00000   0.21839   0.40146   0.00000   0.00000
  11        4PX         0.46926   0.00000   0.00000   0.00000   0.00000
  12        4PY         0.00000   0.00000   0.00000  -0.11086   0.21248
  13        4PZ         0.00000   0.09806  -0.10147   0.00000   0.00000
  14        5S          0.00000   1.51486   4.38755   0.00000   0.00000
  15        5PX         0.65438   0.00000   0.00000   0.00000   0.00000
  16        5PY         0.00000   0.00000   0.00000  -0.80763   5.30421
  17        5PZ         0.00000   0.34530  -0.18206   0.00000   0.00000
  18        6D 0        0.00000   0.00483  -0.00399   0.00000   0.00000
  19        6D+1        0.02951   0.00000   0.00000   0.00000   0.00000
  20        6D-1        0.00000   0.00000   0.00000   0.01422  -0.00046
  21        6D+2        0.00000   0.00152   0.00150   0.00000   0.00000
  22        6D-2        0.00000   0.00000   0.00000   0.00000   0.00000
  23 2   C  1S          0.00000  -0.02070   0.02302   0.00000   0.00000
  24        2S          0.00000  -0.03406   0.03751   0.00000   0.00000
  25        2PX        -0.17320   0.00000   0.00000   0.00000   0.00000
  26        2PY         0.00000   0.00000   0.00000  -0.06017  -0.04081
  27        2PZ         0.00000  -0.04351   0.01950   0.00000   0.00000
  28        3S          0.00000   0.11760  -0.11734   0.00000   0.00000
  29        3PX        -0.25746   0.00000   0.00000   0.00000   0.00000
  30        3PY         0.00000   0.00000   0.00000  -0.09855  -0.04537
  31        3PZ         0.00000  -0.06273   0.03693   0.00000   0.00000
  32        4S          0.00000   0.21839  -0.40146   0.00000   0.00000
  33        4PX        -0.46926   0.00000   0.00000   0.00000   0.00000
  34        4PY         0.00000   0.00000   0.00000  -0.11086  -0.21248
  35        4PZ         0.00000  -0.09806  -0.10147   0.00000   0.00000
  36        5S          0.00000   1.51486  -4.38755   0.00000   0.00000
  37        5PX        -0.65438   0.00000   0.00000   0.00000   0.00000
  38        5PY         0.00000   0.00000   0.00000  -0.80763  -5.30421
  39        5PZ         0.00000  -0.34530  -0.18206   0.00000   0.00000
  40        6D 0        0.00000   0.00483   0.00399   0.00000   0.00000
  41        6D+1        0.02951   0.00000   0.00000   0.00000   0.00000
  42        6D-1        0.00000   0.00000   0.00000  -0.01422  -0.00046
  43        6D+2        0.00000   0.00152  -0.00150   0.00000   0.00000
  44        6D-2        0.00000   0.00000   0.00000   0.00000   0.00000
  45 3   H  1S          0.00000   0.00567   0.00011   0.00085  -0.00841
  46        2S          0.00000  -0.00687  -0.00333   0.01209  -0.05428
  47        3S          0.00000  -0.11587   0.17955   0.18505   0.61407
  48        4S          0.00000  -1.00315   1.66597   2.00525   6.21369
  49        5PX        -0.02301   0.00000   0.00000   0.00000   0.00000
  50        5PY         0.00000  -0.01346   0.00900   0.00938   0.00685
  51        5PZ         0.00000   0.00148  -0.00745  -0.00755  -0.00658
  52 4   H  1S          0.00000   0.00567  -0.00011   0.00085   0.00841
  53        2S          0.00000  -0.00687   0.00333   0.01209   0.05428
  54        3S          0.00000  -0.11587  -0.17955   0.18505  -0.61407
  55        4S          0.00000  -1.00315  -1.66597   2.00525  -6.21369
  56        5PX         0.02301   0.00000   0.00000   0.00000   0.00000
  57        5PY         0.00000  -0.01346  -0.00900   0.00938  -0.00685
  58        5PZ         0.00000  -0.00148  -0.00745   0.00755  -0.00658
  59 5   H  1S          0.00000   0.00567  -0.00011  -0.00085  -0.00841
  60        2S          0.00000  -0.00687   0.00333  -0.01209  -0.05428
  61        3S          0.00000  -0.11587  -0.17955  -0.18505   0.61407
  62        4S          0.00000  -1.00315  -1.66597  -2.00525   6.21369
  63        5PX         0.02301   0.00000   0.00000   0.00000   0.00000
  64        5PY         0.00000   0.01346   0.00900   0.00938  -0.00685
  65        5PZ         0.00000  -0.00148  -0.00745  -0.00755   0.00658
  66 6   H  1S          0.00000   0.00567   0.00011  -0.00085   0.00841
  67        2S          0.00000  -0.00687  -0.00333  -0.01209   0.05428
  68        3S          0.00000  -0.11587   0.17955  -0.18505  -0.61407
  69        4S          0.00000  -1.00315   1.66597  -2.00525  -6.21369
  70        5PX        -0.02301   0.00000   0.00000   0.00000   0.00000
  71        5PY         0.00000   0.01346  -0.00900   0.00938   0.00685
  72        5PZ         0.00000   0.00148  -0.00745   0.00755   0.00658
          Condensed to atoms (all electrons):
               1          2          3          4          5          6
     1  C    4.821998   0.652306  -0.036312   0.409966   0.409966  -0.036312
     2  C    0.652306   4.821998   0.409966  -0.036312  -0.036312   0.409966
     3  H   -0.036312   0.409966   0.567095  -0.016356   0.011354  -0.046552
     4  H    0.409966  -0.036312  -0.016356   0.567095  -0.046552   0.011354
     5  H    0.409966  -0.036312   0.011354  -0.046552   0.567095  -0.016356
     6  H   -0.036312   0.409966  -0.046552   0.011354  -0.016356   0.567095
 Mulliken charges:
               1
     1  C   -0.221612
     2  C   -0.221612
     3  H    0.110806
     4  H    0.110806
     5  H    0.110806
     6  H    0.110806
 Sum of Mulliken charges =  -0.00000
 Mulliken charges with hydrogens summed into heavy atoms:
               1
     1  C   -0.000000
     2  C   -0.000000
 Electronic spatial extent (au):  <R**2>=             83.1438
 Charge=             -0.0000 electrons
 Dipole moment (field-independent basis, Debye):
    X=             -0.0000    Y=              0.0000    Z=              0.0000  Tot=              0.0000
 Quadrupole moment (field-independent basis, Debye-Ang):
   XX=            -15.8935   YY=            -12.4459   ZZ=            -12.3929
   XY=              0.0000   XZ=              0.0000   YZ=             -0.0000
 Traceless Quadrupole moment (field-independent basis, Debye-Ang):
   XX=             -2.3161   YY=              1.1315   ZZ=              1.1845
   XY=              0.0000   XZ=              0.0000   YZ=             -0.0000
 Octapole moment (field-independent basis, Debye-Ang**2):
  XXX=             -0.0000  YYY=              0.0000  ZZZ=              0.0000  XYY=             -0.0000
  XXY=              0.0000  XXZ=              0.0000  XZZ=             -0.0000  YZZ=             -0.0000
  YYZ=              0.0000  XYZ=             -0.0000
 Hexadecapole moment (field-independent basis, Debye-Ang**3):
 XXXX=            -20.7525 YYYY=            -28.0324 ZZZZ=            -69.8472 XXXY=             -0.0000
 XXXZ=              0.0000 YYYX=             -0.0000 YYYZ=              0.0000 ZZZX=              0.0000
 ZZZY=              0.0000 XXYY=             -8.8262 XXZZ=            -16.1284 YYZZ=            -13.7436
 XXYZ=              0.0000 YYXZ=              0.0000 ZZXY=              0.0000
 N-N= 3.340517132201D+01 E-N=-2.485816803785D+02  KE= 7.820527663099D+01
 Symmetry AG   KE= 3.761778741024D+01
 Symmetry B1G  KE= 7.048987091041D-20
 Symmetry B2G  KE= 1.512503111413D-19
 Symmetry B3G  KE= 2.124671932951D+00
 Symmetry AU   KE= 5.129223714100D-20
 Symmetry B1U  KE= 3.448048652882D+01
 Symmetry B2U  KE= 1.913532660922D+00
 Symmetry B3U  KE= 2.068798098061D+00
 Orbital energies and kinetic energies (alpha):
                                 1                 2
   4         (B1U)--O         -0.585455          1.284388
   5         (B2U)--O         -0.475448          0.956766
   6         (AG)--O          -0.428608          1.309041
   7         (B3G)--O         -0.361212          1.062336
   8         (B3U)--O         -0.281559          1.034399
   9         (B2G)--V         -0.010766          0.986287
  10         (AG)--V           0.000862          0.209262
  11         (B1U)--V          0.019096          0.202192
  12         (B2U)--V          0.022193          0.184101
  13         (B3G)--V          0.053806          0.135968
 Total kinetic energy from orbitals= 7.820527663099D+01

 Test job not archived.
 1\1\GINC-BHG0001\FOpt\RB3LYP\6-311++G(d,p)\C2H4\BWEIGHT\01-Jan-2023\0\
 \# OPT FREQ=saveNM B3LYP/6-311++G** GFINPUT IOP(6/7=1)\\TitleMe\\0,1\C
 ,0.,0.,0.6642331014\C,0.,0.,-0.6642331014\H,0.,0.922551082,-1.23526617
 68\H,0.,0.922551082,1.2352661768\H,0.,-0.922551082,1.2352661768\H,0.,-
 0.922551082,-1.2352661768\\Version=ES64L-G16RevC.01\State=1-AG\HF=-78.
 6155381\RMSD=3.926e-09\RMSF=1.613e-04\Dipole=0.,0.,0.\Quadrupole=-1.72
 19391,0.8412657,0.8806734,0.,0.,0.\PG=D02H [C2"(C1.C1),SG(H4)]\\@


 THERE ONCE WAS A GIRL NAMED IRENE,
 WHO LIVED ON DISTILLED KEROSENE,
      BUT SHE STARTED ABSORBIN'
      A NEW HYDROCARBON,
 AND SINCE THEN HAS NEVER BENZENE.
 Job cpu time:       0 days  0 hours  0 minutes  6.6 seconds.
 Elapsed time:       0 days  0 hours  0 minutes  6.7 seconds.
 File lengths (MBytes):  RWF=    272 Int=      0 D2E=      0 Chk=     32 Scr=     32
 Normal termination of Gaussian 16 at Sun Jan  1 20:54:41 2023.
 Link1:  Proceeding to internal job step number  2.
 ----------------------------------------------------------------------
 #N Geom=AllCheck Guess=TCheck SCRF=Check Test GenChk RB3LYP/6-311++G(d
 ,p) Freq
 ----------------------------------------------------------------------
 1/10=4,29=7,30=1,38=1,40=1/1,3;
 2/12=2,40=1/2;
 3/5=4,6=6,7=1111,11=2,14=-4,24=10,25=1,30=1,70=2,71=2,74=-5,116=1,140=1/1,2,3;
 4/5=101/1;
 5/5=2,38=6,98=1/2;
 8/6=4,10=90,11=11/1;
 11/6=1,8=1,9=11,15=111,16=1/1,2,10;
 10/6=1/2;
 6/7=2,8=2,9=2,10=2,28=1/1;
 7/8=1,10=1,25=1,92=1/1,2,3,16;
 1/10=4,30=1/3;
 99//99;
 Structure from the checkpoint file:  "geometry.chk"
 -------
 TitleMe
 -------
 Charge =  0 Multiplicity = 1
 Redundant internal coordinates found in file.  (old form).
 C,0,0.,0.,0.6642331014
 C,0,0.,0.,-0.6642331014
 H,0,0.,0.922551082,-1.2352661768
 H,0,0.,0.922551082,1.2352661768
 H,0,0.,-0.922551082,1.2352661768
 H,0,0.,-0.922551082,-1.2352661768
 Recover connectivity data from disk.

 GradGradGradGradGradGradGradGradGradGradGradGradGradGradGradGradGradGrad
 Berny optimization.
 Initialization pass.
                           ----------------------------
                           !    Initial Parameters    !
                           ! (Angstroms and Degrees)  !
 --------------------------                            --------------------------
 ! Name  Definition              Value          Derivative Info.                !
 --------------------------------------------------------------------------------
 ! R1    R(1,2)                  1.3285         calculate D2E/DX2 analytically  !
 ! R2    R(1,4)                  1.085          calculate D2E/DX2 analytically  !
 ! R3    R(1,5)                  1.085          calculate D2E/DX2 analytically  !
 ! R4    R(2,3)                  1.085          calculate D2E/DX2 analytically  !
 ! R5    R(2,6)                  1.085          calculate D2E/DX2 analytically  !
 ! A1    A(2,1,4)              121.7563         calculate D2E/DX2 analytically  !
 ! A2    A(2,1,5)              121.7563         calculate D2E/DX2 analytically  !
 ! A3    A(4,1,5)              116.4873         calculate D2E/DX2 analytically  !
 ! A4    A(1,2,3)              121.7563         calculate D2E/DX2 analytically  !
 ! A5    A(1,2,6)              121.7563         calculate D2E/DX2 analytically  !
 ! A6    A(3,2,6)              116.4873         calculate D2E/DX2 analytically  !
 ! D1    D(4,1,2,3)              0.0            calculate D2E/DX2 analytically  !
 ! D2    D(4,1,2,6)            180.0            calculate D2E/DX2 analytically  !
 ! D3    D(5,1,2,3)            180.0            calculate D2E/DX2 analytically  !
 ! D4    D(5,1,2,6)              0.0            calculate D2E/DX2 analytically  !
 --------------------------------------------------------------------------------
 Trust Radius=3.00D-01 FncErr=1.00D-07 GrdErr=1.00D-07 EigMax=2.50D+02 EigMin=1.00D-04
 Number of steps in this run=      2 maximum allowed number of steps=      2.
 GradGradGradGradGradGradGradGradGradGradGradGradGradGradGradGradGradGrad

                          Input orientation:                          
 ---------------------------------------------------------------------
 Center     Atomic      Atomic             Coordinates (Angstroms)
 Number     Number       Type             X           Y           Z
 ---------------------------------------------------------------------
      1          6           0       -0.000000   -0.000000    0.664233
      2          6           0        0.000000    0.000000   -0.664233
      3          1           0        0.000000    0.922551   -1.235266
      4          1           0       -0.000000    0.922551    1.235266
      5          1           0       -0.000000   -0.922551    1.235266
      6          1           0        0.000000   -0.922551   -1.235266
 ---------------------------------------------------------------------
                    Distance matrix (angstroms):
                    1          2          3          4          5
     1  C    0.000000
     2  C    1.328466   0.000000
     3  H    2.111681   1.084979   0.000000
     4  H    1.084979   2.111681   2.470532   0.000000
     5  H    1.084979   2.111681   3.083493   1.845102   0.000000
     6  H    2.111681   1.084979   1.845102   3.083493   2.470532
                    6
     6  H    0.000000
 Stoichiometry    C2H4
 Framework group  D2H[C2"(C.C),SG(H4)]
 Deg. of freedom     3
 Full point group                 D2H     NOp   8
 Largest Abelian subgroup         D2H     NOp   8
 Largest concise Abelian subgroup D2      NOp   4
                         Standard orientation:                         
 ---------------------------------------------------------------------
 Center     Atomic      Atomic             Coordinates (Angstroms)
 Number     Number       Type             X           Y           Z
 ---------------------------------------------------------------------
      1          6           0        0.000000    0.000000    0.664233
      2          6           0        0.000000    0.000000   -0.664233
      3          1           0        0.000000    0.922551   -1.235266
      4          1           0       -0.000000    0.922551    1.235266
      5          1           0       -0.000000   -0.922551    1.235266
      6          1           0       -0.000000   -0.922551   -1.235266
 ---------------------------------------------------------------------
 Rotational constants (GHZ):         147.2960905          30.1894989          25.0544012
 Standard basis: 6-311++G(d,p) (5D, 7F)
 AO basis set in the form of general basis input (Overlap normalization):
      1 0
 S   6 1.00       0.000000000000
      0.4563240000D+04  0.1966650249D-02
      0.6820240000D+03  0.1523060193D-01
      0.1549730000D+03  0.7612690966D-01
      0.4445530000D+02  0.2608010331D+00
      0.1302900000D+02  0.6164620782D+00
      0.1827730000D+01  0.2210060280D+00
 SP   3 1.00       0.000000000000
      0.2096420000D+02  0.1146600807D+00  0.4024869267D-01
      0.4803310000D+01  0.9199996477D+00  0.2375939567D+00
      0.1459330000D+01 -0.3030682134D-02  0.8158538515D+00
 SP   1 1.00       0.000000000000
      0.4834560000D+00  0.1000000000D+01  0.1000000000D+01
 SP   1 1.00       0.000000000000
      0.1455850000D+00  0.1000000000D+01  0.1000000000D+01
 SP   1 1.00       0.000000000000
      0.4380000000D-01  0.1000000000D+01  0.1000000000D+01
 D   1 1.00       0.000000000000
      0.6260000000D+00  0.1000000000D+01
 ****
      2 0
 S   6 1.00       0.000000000000
      0.4563240000D+04  0.1966650249D-02
      0.6820240000D+03  0.1523060193D-01
      0.1549730000D+03  0.7612690966D-01
      0.4445530000D+02  0.2608010331D+00
      0.1302900000D+02  0.6164620782D+00
      0.1827730000D+01  0.2210060280D+00
 SP   3 1.00       0.000000000000
      0.2096420000D+02  0.1146600807D+00  0.4024869267D-01
      0.4803310000D+01  0.9199996477D+00  0.2375939567D+00
      0.1459330000D+01 -0.3030682134D-02  0.8158538515D+00
 SP   1 1.00       0.000000000000
      0.4834560000D+00  0.1000000000D+01  0.1000000000D+01
 SP   1 1.00       0.000000000000
      0.1455850000D+00  0.1000000000D+01  0.1000000000D+01
 SP   1 1.00       0.000000000000
      0.4380000000D-01  0.1000000000D+01  0.1000000000D+01
 D   1 1.00       0.000000000000
      0.6260000000D+00  0.1000000000D+01
 ****
      3 0
 S   3 1.00       0.000000000000
      0.3386500000D+02  0.2549381454D-01
      0.5094790000D+01  0.1903731086D+00
      0.1158790000D+01  0.8521614860D+00
 S   1 1.00       0.000000000000
      0.3258400000D+00  0.1000000000D+01
 S   1 1.00       0.000000000000
      0.1027410000D+00  0.1000000000D+01
 S   1 1.00       0.000000000000
      0.3600000000D-01  0.1000000000D+01
 P   1 1.00       0.000000000000
      0.7500000000D+00  0.1000000000D+01
 ****
      4 0
 S   3 1.00       0.000000000000
      0.3386500000D+02  0.2549381454D-01
      0.5094790000D+01  0.1903731086D+00
      0.1158790000D+01  0.8521614860D+00
 S   1 1.00       0.000000000000
      0.3258400000D+00  0.1000000000D+01
 S   1 1.00       0.000000000000
      0.1027410000D+00  0.1000000000D+01
 S   1 1.00       0.000000000000
      0.3600000000D-01  0.1000000000D+01
 P   1 1.00       0.000000000000
      0.7500000000D+00  0.1000000000D+01
 ****
      5 0
 S   3 1.00       0.000000000000
      0.3386500000D+02  0.2549381454D-01
      0.5094790000D+01  0.1903731086D+00
      0.1158790000D+01  0.8521614860D+00
[...]
  YYZ=              0.0000  XYZ=             -0.0000
 Hexadecapole moment (field-independent basis, Debye-Ang**3):
 XXXX=            -20.7525 YYYY=            -28.0324 ZZZZ=            -69.8472 XXXY=             -0.0000
 XXXZ=              0.0000 YYYX=             -0.0000 YYYZ=              0.0000 ZZZX=              0.0000
 ZZZY=             -0.0000 XXYY=             -8.8262 XXZZ=            -16.1284 YYZZ=            -13.7436
 XXYZ=              0.0000 YYXZ=              0.0000 ZZXY=              0.0000
 N-N= 3.340517132201D+01 E-N=-2.485816808067D+02  KE= 7.820527678064D+01
 Symmetry AG   KE= 3.761778745267D+01
 Symmetry B1G  KE= 1.795026596219D-19
 Symmetry B2G  KE=-1.512503111412D-19
 Symmetry B3G  KE= 2.124671968642D+00
 Symmetry AU   KE=-5.129223714099D-20
 Symmetry B1U  KE= 3.448048655633D+01
 Symmetry B2U  KE= 1.913532692331D+00
 Symmetry B3U  KE= 2.068798110668D+00
  Exact polarizability:      18.975       0.000      21.905      -0.000      -0.000      35.264
 Approx polarizability:      23.370       0.000      27.302      -0.000      -0.000      52.287
 Calling FoFJK, ICntrl=    100127 FMM=F ISym2X=1 I1Cent= 0 IOpClX= 0 NMat=1 NMatS=1 NMatT=0.
 Full mass-weighted force constant matrix:
 Low frequencies ---  -29.0996  -22.3351  -22.3330    0.0011    0.0012    0.0013
 Low frequencies ---  834.4277  974.6257  976.6888
 Diagonal vibrational polarizability:
        3.1834009       0.0938208       0.1726668
 Harmonic frequencies (cm**-1), IR intensities (KM/Mole), Raman scattering
 activities (A**4/AMU), depolarization ratios for plane and unpolarized
 incident light, reduced masses (AMU), force constants (mDyne/A),
 and normal coordinates:
                      1                      2                      3
                     B2U                    B3U                    B2G
 Frequencies --    834.4277               974.6257               976.6887
 Red. masses --      1.0428                 1.1607                 1.5192
 Frc consts  --      0.4278                 0.6496                 0.8538
 IR Inten    --      0.7046               112.3657                 0.0000
  Atom  AN      X      Y      Z        X      Y      Z        X      Y      Z
     1   6    -0.00  -0.04   0.00    -0.08  -0.00  -0.00     0.15  -0.00  -0.00
     2   6     0.00  -0.04  -0.00    -0.08  -0.00   0.00    -0.15  -0.00   0.00
     3   1     0.00   0.24   0.44     0.50  -0.00   0.00     0.49  -0.00   0.00
     4   1    -0.00   0.24  -0.44     0.50  -0.00  -0.00    -0.49   0.00   0.00
     5   1     0.00   0.24   0.44     0.50   0.00  -0.00    -0.49  -0.00   0.00
     6   1    -0.00   0.24  -0.44     0.50   0.00   0.00     0.49   0.00   0.00
                      4                      5                      6
                     AU                     B3G                    AG
 Frequencies --   1058.4693              1237.8857              1377.8428
 Red. masses --      1.0078                 1.5266                 1.2215
 Frc consts  --      0.6653                 1.3783                 1.3663
 IR Inten    --      0.0000                 0.0000                 0.0000
  Atom  AN      X      Y      Z        X      Y      Z        X      Y      Z
     1   6     0.00  -0.00   0.00    -0.00   0.15  -0.00    -0.00  -0.00  -0.10
     2   6    -0.00   0.00   0.00    -0.00  -0.15  -0.00     0.00  -0.00   0.10
     3   1     0.50  -0.00  -0.00     0.00   0.14   0.47    -0.00   0.20   0.45
     4   1    -0.50   0.00   0.00     0.00  -0.14   0.47    -0.00   0.20  -0.45
     5   1     0.50   0.00  -0.00    -0.00  -0.14  -0.47     0.00  -0.20  -0.45
     6   1    -0.50  -0.00  -0.00     0.00   0.14  -0.47    -0.00  -0.20   0.45
                      7                      8                      9
                     B1U                    AG                     B1U
 Frequencies --   1471.7487              1684.8500              3122.1053
 Red. masses --      1.1120                 3.1521                 1.0477
 Frc consts  --      1.4191                 5.2720                 6.0172
 IR Inten    --     10.1114                 0.0000                17.0388
  Atom  AN      X      Y      Z        X      Y      Z        X      Y      Z
     1   6    -0.00  -0.00  -0.07     0.00   0.00   0.31     0.00   0.00   0.04
     2   6     0.00   0.00  -0.07    -0.00   0.00  -0.31    -0.00  -0.00   0.04
     3   1    -0.00   0.28   0.41     0.00   0.38   0.24     0.00   0.43  -0.25
     4   1    -0.00  -0.28   0.41    -0.00   0.38  -0.24    -0.00  -0.43  -0.25
     5   1     0.00   0.28   0.41     0.00  -0.38  -0.24    -0.00   0.43  -0.25
     6   1    -0.00  -0.28   0.41     0.00  -0.38   0.24     0.00  -0.43  -0.25
                     10                     11                     12
                     AG                     B3G                    B2U
 Frequencies --   3136.5828              3193.5921              3222.0249
 Red. masses --      1.0731                 1.1140                 1.1176
 Frc consts  --      6.2201                 6.6942                 6.8358
 IR Inten    --      0.0000                 0.0000                25.6872
  Atom  AN      X      Y      Z        X      Y      Z        X      Y      Z
     1   6    -0.00  -0.00  -0.05     0.00   0.07  -0.00    -0.00  -0.07   0.00
     2   6    -0.00  -0.00   0.05     0.00  -0.07  -0.00     0.00  -0.07  -0.00
     3   1     0.00   0.43  -0.26     0.00   0.42  -0.27    -0.00   0.42  -0.27
     4   1     0.00   0.43   0.26    -0.00  -0.42  -0.27    -0.00   0.42   0.27
     5   1     0.00  -0.43   0.26     0.00  -0.42   0.27     0.00   0.42  -0.27
     6   1     0.00  -0.43  -0.26    -0.00   0.42   0.27    -0.00   0.42   0.27

 -------------------
 - Thermochemistry -
 -------------------
 Temperature   298.150 Kelvin.  Pressure   1.00000 Atm.
 Atom     1 has atomic number  6 and mass  12.00000
 Atom     2 has atomic number  6 and mass  12.00000
 Atom     3 has atomic number  1 and mass   1.00783
 Atom     4 has atomic number  1 and mass   1.00783
 Atom     5 has atomic number  1 and mass   1.00783
 Atom     6 has atomic number  1 and mass   1.00783
 Molecular mass:    28.03130 amu.
 Principal axes and moments of inertia in atomic units:
                           1         2         3
     Eigenvalues --    12.25247  59.78043  72.03290
           X            0.00000   0.00000   1.00000
           Y            0.00000   1.00000  -0.00000
           Z            1.00000  -0.00000  -0.00000
 This molecule is an asymmetric top.
 Rotational symmetry number  4.
 Rotational temperatures (Kelvin)      7.06910     1.44887     1.20242
 Rotational constants (GHZ):         147.29609    30.18950    25.05440
 Zero-point vibrational energy     133328.9 (Joules/Mol)
                                   31.86636 (Kcal/Mol)
 Vibrational temperatures:   1200.56  1402.27  1405.24  1522.90  1781.04
          (Kelvin)           1982.41  2117.52  2424.12  4492.01  4512.84
                             4594.87  4635.78
 
 Zero-point correction=                           0.050782 (Hartree/Particle)
 Thermal correction to Energy=                    0.053824
 Thermal correction to Enthalpy=                  0.054769
 Thermal correction to Gibbs Free Energy=         0.029913
 Sum of electronic and zero-point Energies=            -78.564756
 Sum of electronic and thermal Energies=               -78.561714
 Sum of electronic and thermal Enthalpies=             -78.560769
 Sum of electronic and thermal Free Energies=          -78.585625
 
                     E (Thermal)             CV                S
                      KCal/Mol        Cal/Mol-Kelvin    Cal/Mol-Kelvin
 Total                   33.775              8.101             52.314
 Electronic               0.000              0.000              0.000
 Translational            0.889              2.981             35.927
 Rotational               0.889              2.981             15.852
 Vibrational             31.998              2.140              0.535
                       Q            Log10(Q)             Ln(Q)
 Total Bot       0.174234D-13        -13.758868        -31.680965
 Total V=0       0.397501D+10          9.599338         22.103292
 Vib (Bot)       0.459484D-23        -23.337729        -53.737108
 Vib (V=0)       0.104828D+01          0.020477          0.047149
 Electronic      0.100000D+01          0.000000          0.000000
 Translational   0.583336D+07          6.765919         15.579104
 Rotational      0.650044D+03          2.812942          6.477039
 ***** Axes restored to original set *****
 -------------------------------------------------------------------
 Center     Atomic                   Forces (Hartrees/Bohr)
 Number     Number              X              Y              Z
 -------------------------------------------------------------------
      1        6          -0.000000000   -0.000000000    0.000478283
      2        6          -0.000000000   -0.000000000   -0.000478283
      3        1           0.000000000    0.000047548    0.000020163
      4        1           0.000000000    0.000047548   -0.000020163
      5        1           0.000000000   -0.000047548   -0.000020163
      6        1           0.000000000   -0.000047548    0.000020163
 -------------------------------------------------------------------
 Cartesian Forces:  Max     0.000478283 RMS     0.000161276
 FormGI is forming the generalized inverse of G from B-inverse, IUseBI=4.

 GradGradGradGradGradGradGradGradGradGradGradGradGradGradGradGradGradGrad
 Berny optimization.
 Internal  Forces:  Max     0.000437957 RMS     0.000116999
 Search for a local minimum.
 Step number   1 out of a maximum of    2
 All quantities printed in internal units (Hartrees-Bohrs-Radians)
 Second derivative matrix not updated -- analytic derivatives used.
 The second derivative matrix:
                          R1        R2        R3        R4        R5
           R1           0.62924
           R2           0.00679   0.35439
           R3           0.00679   0.00219   0.35439
           R4           0.00679   0.00080  -0.00055   0.35439
           R5           0.00679  -0.00055   0.00080   0.00219   0.35439
           A1           0.01102   0.00525  -0.01188  -0.00329   0.00427
           A2           0.01102  -0.01188   0.00525   0.00427  -0.00329
           A3          -0.02204   0.00663   0.00663  -0.00098  -0.00098
           A4           0.01102  -0.00329   0.00427   0.00525  -0.01188
           A5           0.01102   0.00427  -0.00329  -0.01188   0.00525
           A6          -0.02204  -0.00098  -0.00098   0.00663   0.00663
           D1           0.00000  -0.00000   0.00000  -0.00000  -0.00000
           D2          -0.00000  -0.00000  -0.00000  -0.00000  -0.00000
           D3           0.00000   0.00000   0.00000   0.00000   0.00000
           D4          -0.00000  -0.00000   0.00000   0.00000  -0.00000
                          A1        A2        A3        A4        A5
           A1           0.08103
           A2          -0.04504   0.08103
           A3          -0.03599  -0.03599   0.07198
           A4          -0.00868   0.01003  -0.00135   0.08103
           A5           0.01003  -0.00868  -0.00135  -0.04504   0.08103
           A6          -0.00135  -0.00135   0.00271  -0.03599  -0.03599
           D1          -0.00000   0.00000   0.00000   0.00000   0.00000
           D2          -0.00000   0.00000   0.00000   0.00000  -0.00000
           D3           0.00000   0.00000  -0.00000   0.00000  -0.00000
           D4           0.00000   0.00000  -0.00000   0.00000  -0.00000
                          A6        D1        D2        D3        D4
           A6           0.07198
           D1          -0.00000   0.02562
           D2           0.00000   0.00812   0.03169
           D3          -0.00000   0.00812  -0.01544   0.03169
           D4           0.00000  -0.00937   0.00812   0.00812   0.02562
 ITU=  0
     Eigenvalues ---    0.03249   0.03499   0.04713   0.10323   0.10699
     Eigenvalues ---    0.10877   0.14187   0.35376   0.35392   0.35668
     Eigenvalues ---    0.35702   0.63264
 Angle between quadratic step and forces=  43.26 degrees.
 Linear search not attempted -- first point.
 Iteration  1 RMS(Cart)=  0.00026375 RMS(Int)=  0.00000006
 Iteration  2 RMS(Cart)=  0.00000006 RMS(Int)=  0.00000000
 ClnCor:  largest displacement from symmetrization is 5.92D-12 for atom     5.
 Variable       Old X    -DE/DX   Delta X   Delta X   Delta X     New X
                                 (Linear)    (Quad)   (Total)
    R1        2.51044   0.00044   0.00000   0.00076   0.00076   2.51120
    R2        2.05031   0.00003   0.00000   0.00005   0.00005   2.05037
    R3        2.05031   0.00003   0.00000   0.00005   0.00005   2.05037
    R4        2.05031   0.00003   0.00000   0.00005   0.00005   2.05037
    R5        2.05031   0.00003   0.00000   0.00005   0.00005   2.05037
    A1        2.12505  -0.00003   0.00000  -0.00033  -0.00033   2.12472
    A2        2.12505  -0.00003   0.00000  -0.00033  -0.00033   2.12472
    A3        2.03309   0.00006   0.00000   0.00066   0.00066   2.03375
    A4        2.12505  -0.00003   0.00000  -0.00033  -0.00033   2.12472
    A5        2.12505  -0.00003   0.00000  -0.00033  -0.00033   2.12472
    A6        2.03309   0.00006   0.00000   0.00066   0.00066   2.03375
    D1       -0.00000   0.00000   0.00000   0.00000   0.00000   0.00000
    D2        3.14159  -0.00000   0.00000  -0.00000   0.00000   3.14159
    D3        3.14159   0.00000   0.00000   0.00000   0.00000   3.14159
    D4        0.00000  -0.00000   0.00000  -0.00000   0.00000   0.00000
         Item               Value     Threshold  Converged?
 Maximum Force            0.000438     0.000450     YES
 RMS     Force            0.000117     0.000300     YES
 Maximum Displacement     0.000401     0.001800     YES
 RMS     Displacement     0.000264     0.001200     YES
 Predicted change in Energy=-2.272552D-07
 Optimization completed.
    -- Stationary point found.
                           ----------------------------
                           !   Optimized Parameters   !
                           ! (Angstroms and Degrees)  !
 --------------------------                            --------------------------
 ! Name  Definition              Value          Derivative Info.                !
 --------------------------------------------------------------------------------
 ! R1    R(1,2)                  1.3285         -DE/DX =    0.0004              !
 ! R2    R(1,4)                  1.085          -DE/DX =    0.0                 !
 ! R3    R(1,5)                  1.085          -DE/DX =    0.0                 !
 ! R4    R(2,3)                  1.085          -DE/DX =    0.0                 !
 ! R5    R(2,6)                  1.085          -DE/DX =    0.0                 !
 ! A1    A(2,1,4)              121.7563         -DE/DX =    0.0                 !
 ! A2    A(2,1,5)              121.7563         -DE/DX =    0.0                 !
 ! A3    A(4,1,5)              116.4873         -DE/DX =    0.0001              !
 ! A4    A(1,2,3)              121.7563         -DE/DX =    0.0                 !
 ! A5    A(1,2,6)              121.7563         -DE/DX =    0.0                 !
 ! A6    A(3,2,6)              116.4873         -DE/DX =    0.0001              !
 ! D1    D(4,1,2,3)              0.0            -DE/DX =    0.0                 !
 ! D2    D(4,1,2,6)            180.0            -DE/DX =    0.0                 !
 ! D3    D(5,1,2,3)            180.0            -DE/DX =    0.0                 !
 ! D4    D(5,1,2,6)              0.0            -DE/DX =    0.0                 !
 --------------------------------------------------------------------------------
 GradGradGradGradGradGradGradGradGradGradGradGradGradGradGradGradGradGrad

 Dipole is zero, so no output in dipole orientation.

 ----------------------------------------------------------------------

 Electric dipole moment (input orientation):
 (Debye = 10**-18 statcoulomb cm , SI units = C m)
                  (au)            (Debye)         (10**-30 SI)
   Tot        0.000000D+00      0.000000D+00      0.000000D+00
   x          0.000000D+00      0.000000D+00      0.000000D+00
   y          0.000000D+00      0.000000D+00      0.000000D+00
   z          0.000000D+00      0.000000D+00      0.000000D+00

 Dipole polarizability, Alpha (input orientation).
 (esu units = cm**3 , SI units = C**2 m**2 J**-1)
 Alpha(0;0):
               (au)            (10**-24 esu)      (10**-40 SI)
   iso        0.253813D+02      0.376112D+01      0.418481D+01
   aniso      0.150390D+02      0.222855D+01      0.247960D+01
   xx         0.189749D+02      0.281180D+01      0.312854D+01
   yx         0.000000D+00      0.000000D+00      0.000000D+00
   yy         0.219055D+02      0.324605D+01      0.361172D+01
   zx         0.000000D+00      0.000000D+00      0.000000D+00
   zy         0.000000D+00      0.000000D+00      0.000000D+00
   zz         0.352635D+02      0.522552D+01      0.581417D+01

 ----------------------------------------------------------------------

 Test job not archived.
 1\1\GINC-BHG0001\Freq\RB3LYP\6-311++G(d,p)\C2H4\BWEIGHT\01-Jan-2023\0\
 \#N Geom=AllCheck Guess=TCheck SCRF=Check Test GenChk RB3LYP/6-311++G(
 d,p) Freq\\TitleMe\\0,1\C,0.,0.,0.6642331014\C,0.,0.,-0.6642331014\H,0
 .,0.922551082,-1.2352661768\H,0.,0.922551082,1.2352661768\H,0.,-0.9225
 51082,1.2352661768\H,0.,-0.922551082,-1.2352661768\\Version=ES64L-G16R
 evC.01\State=1-AG\HF=-78.6155381\RMSD=4.464e-10\RMSF=1.613e-04\ZeroPoi
 nt=0.0507823\Thermal=0.0538245\ETot=-78.5617136\HTot=-78.5607695\GTot=
 -78.5856254\Dipole=0.,0.,0.\DipoleDeriv=-0.3153682,0.,0.,0.,0.1175997,
 0.,0.,0.,-0.0137235,-0.3153682,0.,0.,0.,0.1175997,0.,0.,0.,-0.0137237,
 0.1576841,0.,0.,0.,-0.0587999,0.0834383,0.,0.0527518,0.0068618,0.15768
 41,0.,0.,0.,-0.0587999,-0.0834382,0.,-0.0527518,0.0068618,0.1576841,0.
 ,0.,0.,-0.0587999,0.0834382,0.,0.0527518,0.0068618,0.1576841,0.,0.,0.,
 -0.0587999,-0.0834383,0.,-0.0527518,0.0068618\Polar=18.9749359,0.,21.9
 054629,0.,0.,35.2635268\Quadrupole=-1.7219393,0.8412657,0.8806736,0.,0
 .,0.\PG=D02H [C2"(C1.C1),SG(H4)]\NImag=0\\0.11043920,0.,0.62845713,0.,
 0.,0.85162928,-0.04840227,0.,0.,0.11043920,0.,-0.11139529,0.,0.,0.6284
 5713,0.,0.,-0.56698969,0.,0.,0.85162928,0.00589526,0.,0.,-0.03691373,0
 .,0.,0.02418475,0.,0.00339725,-0.00216508,0.,-0.26192817,0.12346825,0.
 ,0.27166581,0.,0.03004569,-0.01383901,0.,0.11882287,-0.12848078,0.,-0.
 13433684,0.13622872,-0.03691373,0.,0.,0.00589526,0.,0.,-0.00869167,0.,
 0.,0.02418475,0.,-0.26192817,-0.12346825,0.,0.00339725,0.00216508,0.,0
 .00136810,-0.00020285,0.,0.27166581,0.,-0.11882287,-0.12848078,0.,-0.0
 3004569,-0.01383901,0.,0.00020285,0.00134833,0.,0.13433684,0.13622872,
 -0.03691373,0.,0.,0.00589526,0.,0.,0.01268949,0.,0.,0.00283589,0.,0.,0
 .02418475,0.,-0.26192817,0.12346825,0.,0.00339726,-0.00216508,0.,0.001
 67690,-0.00074902,0.,-0.01617989,0.01357985,0.,0.27166581,0.,0.1188228
 7,-0.12848078,0.,0.03004569,-0.01383901,0.,-0.00074902,-0.00479709,0.,
 -0.01357985,0.00953985,0.,-0.13433684,0.13622872,0.00589526,0.,0.,-0.0
 3691373,0.,0.,0.00283589,0.,0.,0.01268949,0.,0.,-0.00869167,0.,0.,0.02
 418475,0.,0.00339726,0.00216508,0.,-0.26192817,-0.12346825,0.,-0.01617
 989,-0.01357985,0.,0.00167690,0.00074902,0.,0.00136810,-0.00020285,0.,
 0.27166581,0.,-0.03004569,-0.01383901,0.,-0.11882287,-0.12848078,0.,0.
 01357985,0.00953985,0.,0.00074902,-0.00479709,0.,0.00020285,0.00134833
 ,0.,0.13433684,0.13622872\\0.,0.,-0.00047828,0.,0.,0.00047828,0.,-0.00
 004755,-0.00002016,0.,-0.00004755,0.00002016,0.,0.00004755,0.00002016,
 0.,0.00004755,-0.00002016\\\@


 HO!  SUCH BUGS AND GOBLINS IN MY LIFE!

                            -- HAMLET, ACT 5, SCENE 2
 Job cpu time:       0 days  0 hours  0 minutes 18.7 seconds.
 Elapsed time:       0 days  0 hours  0 minutes 18.7 seconds.
 File lengths (MBytes):  RWF=    272 Int=      0 D2E=      0 Chk=     32 Scr=     32
 Normal termination of Gaussian 16 at Sun Jan  1 20:55:00 2023.
