 Entering Gaussian System, Link 0=g16
 Initial command:
 /software/gaussian/g16-c01/avx2/g16/l1.exe "/gpfs/fs2/scratch/bweight/software/many_molecule_many_mode_NAMD/src/WFN_OVERLAP/TEST/DIMER/Gau-30557.inp" -scrdir="/gpfs/fs2/scratch/bweight/software/many_molecule_many_mode_NAMD/src/WFN_OVERLAP/TEST/DIMER/"
 Entering Link 1 = /software/gaussian/g16-c01/avx2/g16/l1.exe PID=     30566.
  
 Copyright (c) 1988-2019, Gaussian, Inc.  All Rights Reserved.
  
 This is part of the Gaussian(R) 16 program.  It is based on
 the Gaussian(R) 09 system (copyright 2009, Gaussian, Inc.),
 the Gaussian(R) 03 system (copyright 2003, Gaussian, Inc.),
 the Gaussian(R) 98 system (copyright 1998, Gaussian, Inc.),
 the Gaussian(R) 94 system (copyright 1995, Gaussian, Inc.),
 the Gaussian 92(TM) system (copyright 1992, Gaussian, Inc.),
 the Gaussian 90(TM) system (copyright 1990, Gaussian, Inc.),
 the Gaussian 88(TM) system (copyright 1988, Gaussian, Inc.),
 the Gaussian 86(TM) system (copyright 1986, Carnegie Mellon
 University), and the Gaussian 82(TM) system (copyright 1983,
 Carnegie Mellon University). Gaussian is a federally registered
 trademark of Gaussian, Inc.
  
 This software contains proprietary and confidential information,
 including trade secrets, belonging to Gaussian, Inc.
  
 This software is provided under written license and may be
 used, copied, transmitted, or stored only in accord with that
 written license.
  
 The following legend is applicable only to US Government
 contracts under FAR:
  
                    RESTRICTED RIGHTS LEGEND
  
 Use, reproduction and disclosure by the US Government is
 subject to restrictions as set forth in subparagraphs (a)
 and (c) of the Commercial Computer Software - Restricted
 Rights clause in FAR 52.227-19.
  
 Gaussian, Inc.
 340 Quinnipiac St., Bldg. 40, Wallingford CT 06492
  
  
 ---------------------------------------------------------------
 Warning -- This program may not be used in any manner that
 competes with the business of Gaussian, Inc. or will provide
 assistance to any competitor of Gaussian, Inc.  The licensee
 of this program is prohibited from giving any competitor of
 Gaussian, Inc. access to this program.  By using this program,
 the user acknowledges that Gaussian, Inc. is engaged in the
 business of creating and licensing software in the field of
 computational chemistry and represents and warrants to the
 licensee that it is not a competitor of Gaussian, Inc. and that
 it will not use this program in any manner prohibited above.
 ---------------------------------------------------------------
  

 Cite this work as:
 Gaussian 16, Revision C.01,
 M. J. Frisch, G. W. Trucks, H. B. Schlegel, G. E. Scuseria, 
 M. A. Robb, J. R. Cheeseman, G. Scalmani, V. Barone, 
 G. A. Petersson, H. Nakatsuji, X. Li, M. Caricato, A. V. Marenich, 
 J. Bloino, B. G. Janesko, R. Gomperts, B. Mennucci, H. P. Hratchian, 
 J. V. Ortiz, A. F. Izmaylov, J. L. Sonnenberg, D. Williams-Young, 
 F. Ding, F. Lipparini, F. Egidi, J. Goings, B. Peng, A. Petrone, 
 T. Henderson, D. Ranasinghe, V. G. Zakrzewski, J. Gao, N. Rega, 
 G. Zheng, W. Liang, M. Hada, M. Ehara, K. Toyota, R. Fukuda, 
 J. Hasegawa, M. Ishida, T. Nakajima, Y. Honda, O. Kitao, H. Nakai, 
 T. Vreven, K. Throssell, J. A. Montgomery, Jr., J. E. Peralta, 
 F. Ogliaro, M. J. Bearpark, J. J. Heyd, E. N. Brothers, K. N. Kudin, 
 V. N. Staroverov, T. A. Keith, R. Kobayashi, J. Normand, 
 K. Raghavachari, A. P. Rendell, J. C. Burant, S. S. Iyengar, 
 J. Tomasi, M. Cossi, J. M. Millam, M. Klene, C. Adamo, R. Cammi, 
 J. W. Ochterski, R. L. Martin, K. Morokuma, O. Farkas, 
 J. B. Foresman, and D. J. Fox, Gaussian, Inc., Wallingford CT, 2019.
 
 ******************************************
 Gaussian 16:  ES64L-G16RevC.01  3-Jul-2019
                 7-Jan-2023 
 ******************************************
 %chk=geometry.chk
 %rwf=geometry.rwf
 %nprocshared=1
 Will use up to    1 processors via shared memory.
 %mem=5GB
 -------------------------------------------------------------
 # WB97XD/STO-3G nosymm iop(2/12=3,3/33=1) guess=only pop=full
 -------------------------------------------------------------
 1/38=1,172=1/1;
 2/12=3,15=1,17=6,18=5,40=1/2;
 3/6=3,11=2,25=1,30=1,33=1,74=-58,89=1/1,2;
 4//1;
 6/7=3,28=1/1;
 99/5=2/99;
 ------------
 MD Step 1000
 ------------
 Symbolic Z-matrix:
 Charge =  0 Multiplicity = 1
 C                     2.72954   1.87134   2.07946 
 H                    -1.05561  -1.02063   2.50033 
 H                    -1.04327  -0.67904   1.5251 
 C                     1.53942   3.05223   2.06008 
 H                     1.75351   3.2302    3.16006 
 H                     1.57092   3.70494   1.23458 
 C                     2.74013   1.87526   2.08311 
 H                    -1.06508  -1.03156   2.48749 
 H                    -1.09273  -0.6899    1.54417 
 C                     1.53905   3.05057   2.05906 
 H                     1.7419    3.26332   3.16785 
 H                     1.55952   3.73872   1.25196 
 
                          Input orientation:                          
 ---------------------------------------------------------------------
 Center     Atomic      Atomic             Coordinates (Angstroms)
 Number     Number       Type             X           Y           Z
 ---------------------------------------------------------------------
      1          6           0        2.729538    1.871343    2.079458
      2          1           0       -1.055606   -1.020629    2.500325
      3          1           0       -1.043272   -0.679038    1.525102
      4          6           0        1.539424    3.052234    2.060079
      5          1           0        1.753508    3.230199    3.160056
      6          1           0        1.570919    3.704944    1.234581
      7          6           0        2.740135    1.875258    2.083115
      8          1           0       -1.065076   -1.031556    2.487493
      9          1           0       -1.092727   -0.689900    1.544174
     10          6           0        1.539049    3.050566    2.059056
     11          1           0        1.741899    3.263317    3.167845
     12          1           0        1.559520    3.738724    1.251960
 ---------------------------------------------------------------------
                    Distance matrix (angstroms):
                    1          2          3          4          5
     1  C    0.000000
     2  H    4.782045   0.000000
     3  H    4.587576   1.033391   0.000000
     4  C    1.676679   4.849351   4.569344   0.000000
     5  H    1.991686   5.137695   5.077124   1.134659   0.000000
     6  H    2.327726   5.552638   5.112504   1.052839   1.991525
     7  C    0.011873   4.792481   4.598910   1.681520   1.992260
     8  H    4.795041   0.019333   1.025154   4.862452   5.153573
     9  H    4.632085   1.012416   0.054107   4.604122   5.106790
    10  C    1.675783   4.847843   4.567651   0.001992   1.135985
    11  H    2.024255   5.159827   5.098818   1.145730   0.035948
    12  H    2.353892   5.572140   5.134759   1.060533   1.984203
                    6          7          8          9         10
     6  H    0.000000
     7  C    2.331271   0.000000
     8  H    5.563514   4.805488   0.000000
     9  H    5.148350   4.643417   1.003666   0.000000
    10  C    1.053083   1.680636   4.860941   4.602438   0.000000
    11  H    1.990422   2.024802   5.175705   5.128288   1.147094
    12  H    0.039662   2.357367   5.583066   5.170350   1.060842
                   11         12
    11  H    0.000000
    12  H    1.982396   0.000000
 Symmetry turned off by external request.
 Stoichiometry    C4H8
 Framework group  C1[X(C4H8)]
 Deg. of freedom    30
 Full point group                 C1      NOp   1
 Rotational constants (GHZ):          11.8375903           5.8565329           4.2256757
 Standard basis: STO-3G (5D, 7F)
                         Coordinates in L301:                         
 ---------------------------------------------------------------------
 Center     Atomic      Atomic             Coordinates (Angstroms)
 Number     Number       Type             X           Y           Z
 ---------------------------------------------------------------------
      1          6           0        2.729538    1.871343    2.079458
      2          1           0       -1.055606   -1.020629    2.500325
      3          1           0       -1.043272   -0.679038    1.525102
      4          6           0        1.539424    3.052234    2.060079
      5          1           0        1.753508    3.230199    3.160056
      6          1           0        1.570919    3.704944    1.234581
      7          6           0        2.740135    1.875258    2.083115
      8          1           0       -1.065076   -1.031556    2.487493
      9          1           0       -1.092727   -0.689900    1.544174
     10          6           0        1.539049    3.050566    2.059056
     11          1           0        1.741899    3.263317    3.167845
     12          1           0        1.559520    3.738724    1.251960
 ---------------------------------------------------------------------
 FixB: optimizing general contractions.
 Ernie: Thresh=  0.10000D-02 Tol=  0.10000D-05 Strict=F.
 IA=     1 ShT= 0 ShC= 0 NL=   1 NS=   0.
 IA=     1 L=0 SC=0 ISt=    0 NBk=    0 NP=    0 IndPr=    0.
 IA=     1 ShT= 1 ShC= 0 NL=   1 NS=   0.
 IA=     1 L=1 SC=0 ISt=    0 NBk=    0 NP=    0 IndPr=    0.
 IA=     2 ShT= 0 ShC= 0 NL=   1 NS=   0.
 IA=     2 L=0 SC=0 ISt=    0 NBk=    0 NP=    0 IndPr=    0.
 IA=     3 ShT= 0 ShC= 0 NL=   1 NS=   0.
 IA=     3 L=0 SC=0 ISt=    0 NBk=    0 NP=    0 IndPr=    0.
 IA=     4 ShT= 0 ShC= 0 NL=   1 NS=   0.
 IA=     4 L=0 SC=0 ISt=    0 NBk=    0 NP=    0 IndPr=    0.
 IA=     4 ShT= 1 ShC= 0 NL=   1 NS=   0.
 IA=     4 L=1 SC=0 ISt=    0 NBk=    0 NP=    0 IndPr=    0.
 IA=     5 ShT= 0 ShC= 0 NL=   1 NS=   0.
 IA=     5 L=0 SC=0 ISt=    0 NBk=    0 NP=    0 IndPr=    0.
 IA=     6 ShT= 0 ShC= 0 NL=   1 NS=   0.
 IA=     6 L=0 SC=0 ISt=    0 NBk=    0 NP=    0 IndPr=    0.
 IA=     7 ShT= 0 ShC= 0 NL=   1 NS=   0.
 IA=     7 L=0 SC=0 ISt=    0 NBk=    0 NP=    0 IndPr=    0.
 IA=     7 ShT= 1 ShC= 0 NL=   1 NS=   0.
 IA=     7 L=1 SC=0 ISt=    0 NBk=    0 NP=    0 IndPr=    0.
 IA=     8 ShT= 0 ShC= 0 NL=   1 NS=   0.
 IA=     8 L=0 SC=0 ISt=    0 NBk=    0 NP=    0 IndPr=    0.
 IA=     9 ShT= 0 ShC= 0 NL=   1 NS=   0.
 IA=     9 L=0 SC=0 ISt=    0 NBk=    0 NP=    0 IndPr=    0.
 IA=    10 ShT= 0 ShC= 0 NL=   1 NS=   0.
 IA=    10 L=0 SC=0 ISt=    0 NBk=    0 NP=    0 IndPr=    0.
 IA=    10 ShT= 1 ShC= 0 NL=   1 NS=   0.
 IA=    10 L=1 SC=0 ISt=    0 NBk=    0 NP=    0 IndPr=    0.
 IA=    11 ShT= 0 ShC= 0 NL=   1 NS=   0.
 IA=    11 L=0 SC=0 ISt=    0 NBk=    0 NP=    0 IndPr=    0.
 IA=    12 ShT= 0 ShC= 0 NL=   1 NS=   0.
 IA=    12 L=0 SC=0 ISt=    0 NBk=    0 NP=    0 IndPr=    0.
 LdAtmC:  AtmChg=     6.000000     1.000000     1.000000     6.000000     1.000000
 LdAtmC:  AtmChg=     1.000000     6.000000     1.000000     1.000000     6.000000
 LdAtmC:  AtmChg=     1.000000     1.000000
 AtZEff=     -3.6000000     -1.0000000     -1.0000000     -3.6000000     -1.0000000
 AtZEff=     -1.0000000     -3.6000000     -1.0000000     -1.0000000     -3.6000000
 AtZEff=     -1.0000000     -1.0000000
    28 basis functions,    84 primitive gaussians,    28 cartesian basis functions
    16 alpha electrons       16 beta electrons
       nuclear repulsion energy     11327.8401987057 Hartrees.
 IS=     1 IAt=     1 ISR=     1 T=0 IP=      1 IndIP=      1 IndIPD=      0 C=  2.707814D+00  0.000000D+00                             NZ=T
 IS=     1 IAt=     1 ISR=     1 T=0 IP=      2 IndIP=      2 IndIPD=      1 C=  2.618880D+00  0.000000D+00                             NZ=T
 IS=     1 IAt=     1 ISR=     1 T=0 IP=      3 IndIP=      3 IndIPD=      2 C=  8.161906D-01  0.000000D+00                             NZ=T
 IS=     2 IAt=     1 ISR=     2 T=1 IP=      1 IndIP=      4 IndIPD=      0 C= -1.600172D-01  8.560445D-01                             NZ=T
 IS=     2 IAt=     1 ISR=     2 T=1 IP=      2 IndIP=      5 IndIPD=      1 C=  2.140359D-01  5.383038D-01                             NZ=T
 IS=     2 IAt=     1 ISR=     2 T=1 IP=      3 IndIP=      6 IndIPD=      2 C=  1.615361D-01  8.527636D-02                             NZ=T
 IS=     3 IAt=     2 ISR=     1 T=0 IP=      1 IndIP=      7 IndIPD=      0 C=  2.769344D-01  0.000000D+00                             NZ=T
 IS=     3 IAt=     2 ISR=     1 T=0 IP=      2 IndIP=      8 IndIPD=      1 C=  2.678389D-01  0.000000D+00                             NZ=T
 IS=     3 IAt=     2 ISR=     1 T=0 IP=      3 IndIP=      9 IndIPD=      2 C=  8.347367D-02  0.000000D+00                             NZ=T
 IS=     4 IAt=     3 ISR=     1 T=0 IP=      1 IndIP=     10 IndIPD=      0 C=  2.769344D-01  0.000000D+00                             NZ=T
 IS=     4 IAt=     3 ISR=     1 T=0 IP=      2 IndIP=     11 IndIPD=      1 C=  2.678389D-01  0.000000D+00                             NZ=T
 IS=     4 IAt=     3 ISR=     1 T=0 IP=      3 IndIP=     12 IndIPD=      2 C=  8.347367D-02  0.000000D+00                             NZ=T
 IS=     5 IAt=     4 ISR=     1 T=0 IP=      1 IndIP=     13 IndIPD=      0 C=  2.707814D+00  0.000000D+00                             NZ=T
 IS=     5 IAt=     4 ISR=     1 T=0 IP=      2 IndIP=     14 IndIPD=      1 C=  2.618880D+00  0.000000D+00                             NZ=T
 IS=     5 IAt=     4 ISR=     1 T=0 IP=      3 IndIP=     15 IndIPD=      2 C=  8.161906D-01  0.000000D+00                             NZ=T
 IS=     6 IAt=     4 ISR=     2 T=1 IP=      1 IndIP=     16 IndIPD=      0 C= -1.600172D-01  8.560445D-01                             NZ=T
 IS=     6 IAt=     4 ISR=     2 T=1 IP=      2 IndIP=     17 IndIPD=      1 C=  2.140359D-01  5.383038D-01                             NZ=T
 IS=     6 IAt=     4 ISR=     2 T=1 IP=      3 IndIP=     18 IndIPD=      2 C=  1.615361D-01  8.527636D-02                             NZ=T
 IS=     7 IAt=     5 ISR=     1 T=0 IP=      1 IndIP=     19 IndIPD=      0 C=  2.769344D-01  0.000000D+00                             NZ=T
 IS=     7 IAt=     5 ISR=     1 T=0 IP=      2 IndIP=     20 IndIPD=      1 C=  2.678389D-01  0.000000D+00                             NZ=T
 IS=     7 IAt=     5 ISR=     1 T=0 IP=      3 IndIP=     21 IndIPD=      2 C=  8.347367D-02  0.000000D+00                             NZ=T
 IS=     8 IAt=     6 ISR=     1 T=0 IP=      1 IndIP=     22 IndIPD=      0 C=  2.769344D-01  0.000000D+00                             NZ=T
 IS=     8 IAt=     6 ISR=     1 T=0 IP=      2 IndIP=     23 IndIPD=      1 C=  2.678389D-01  0.000000D+00                             NZ=T
 IS=     8 IAt=     6 ISR=     1 T=0 IP=      3 IndIP=     24 IndIPD=      2 C=  8.347367D-02  0.000000D+00                             NZ=T
 IS=     9 IAt=     7 ISR=     1 T=0 IP=      1 IndIP=     25 IndIPD=      0 C=  2.707814D+00  0.000000D+00                             NZ=T
 IS=     9 IAt=     7 ISR=     1 T=0 IP=      2 IndIP=     26 IndIPD=      1 C=  2.618880D+00  0.000000D+00                             NZ=T
 IS=     9 IAt=     7 ISR=     1 T=0 IP=      3 IndIP=     27 IndIPD=      2 C=  8.161906D-01  0.000000D+00                             NZ=T
 IS=    10 IAt=     7 ISR=     2 T=1 IP=      1 IndIP=     28 IndIPD=      0 C= -1.600172D-01  8.560445D-01                             NZ=T
 IS=    10 IAt=     7 ISR=     2 T=1 IP=      2 IndIP=     29 IndIPD=      1 C=  2.140359D-01  5.383038D-01                             NZ=T
 IS=    10 IAt=     7 ISR=     2 T=1 IP=      3 IndIP=     30 IndIPD=      2 C=  1.615361D-01  8.527636D-02                             NZ=T
 IS=    11 IAt=     8 ISR=     1 T=0 IP=      1 IndIP=     31 IndIPD=      0 C=  2.769344D-01  0.000000D+00                             NZ=T
 IS=    11 IAt=     8 ISR=     1 T=0 IP=      2 IndIP=     32 IndIPD=      1 C=  2.678389D-01  0.000000D+00                             NZ=T
 IS=    11 IAt=     8 ISR=     1 T=0 IP=      3 IndIP=     33 IndIPD=      2 C=  8.347367D-02  0.000000D+00                             NZ=T
 IS=    12 IAt=     9 ISR=     1 T=0 IP=      1 IndIP=     34 IndIPD=      0 C=  2.769344D-01  0.000000D+00                             NZ=T
 IS=    12 IAt=     9 ISR=     1 T=0 IP=      2 IndIP=     35 IndIPD=      1 C=  2.678389D-01  0.000000D+00                             NZ=T
 IS=    12 IAt=     9 ISR=     1 T=0 IP=      3 IndIP=     36 IndIPD=      2 C=  8.347367D-02  0.000000D+00                             NZ=T
 IS=    13 IAt=    10 ISR=     1 T=0 IP=      1 IndIP=     37 IndIPD=      0 C=  2.707814D+00  0.000000D+00                             NZ=T
 IS=    13 IAt=    10 ISR=     1 T=0 IP=      2 IndIP=     38 IndIPD=      1 C=  2.618880D+00  0.000000D+00                             NZ=T
 IS=    13 IAt=    10 ISR=     1 T=0 IP=      3 IndIP=     39 IndIPD=      2 C=  8.161906D-01  0.000000D+00                             NZ=T
 IS=    14 IAt=    10 ISR=     2 T=1 IP=      1 IndIP=     40 IndIPD=      0 C= -1.600172D-01  8.560445D-01                             NZ=T
 IS=    14 IAt=    10 ISR=     2 T=1 IP=      2 IndIP=     41 IndIPD=      1 C=  2.140359D-01  5.383038D-01                             NZ=T
 IS=    14 IAt=    10 ISR=     2 T=1 IP=      3 IndIP=     42 IndIPD=      2 C=  1.615361D-01  8.527636D-02                             NZ=T
 IS=    15 IAt=    11 ISR=     1 T=0 IP=      1 IndIP=     43 IndIPD=      0 C=  2.769344D-01  0.000000D+00                             NZ=T
 IS=    15 IAt=    11 ISR=     1 T=0 IP=      2 IndIP=     44 IndIPD=      1 C=  2.678389D-01  0.000000D+00                             NZ=T
 IS=    15 IAt=    11 ISR=     1 T=0 IP=      3 IndIP=     45 IndIPD=      2 C=  8.347367D-02  0.000000D+00                             NZ=T
 IS=    16 IAt=    12 ISR=     1 T=0 IP=      1 IndIP=     46 IndIPD=      0 C=  2.769344D-01  0.000000D+00                             NZ=T
 IS=    16 IAt=    12 ISR=     1 T=0 IP=      2 IndIP=     47 IndIPD=      1 C=  2.678389D-01  0.000000D+00                             NZ=T
 IS=    16 IAt=    12 ISR=     1 T=0 IP=      3 IndIP=     48 IndIPD=      2 C=  8.347367D-02  0.000000D+00                             NZ=T
 IExCor= 4639 DFT=T Ex+Corr=wB97XD ExCW=0 ScaHFX=  1.000000
 ScaDFX=  1.000000  1.000000  1.000000  1.000000 ScalE2=  1.000000  1.000000
 IRadAn=      5 IRanWt=     -1 IRanGd=            0 ICorTp=0 IEmpDi=121
 HFx  wShort=  0.000000 wLong=  0.200000 cFull=  0.222036 cShort=  0.000000 cLong=  0.777964
 DFx  wShort=  0.000000 wLong=  0.200000 cFull=  0.000000 cShort=  0.000000 cLong=  1.000000
 NAtoms=   12 NActive=   12 NUniq=   12 SFac= 1.00D+00 NAtFMM=   60 NAOKFM=F Big=F
 Integral buffers will be    131072 words long.
 Raffenetti 2 integral format.
 Two-electron integral symmetry is turned off.
 Nuclear repulsion after empirical dispersion term =    11327.8388028930 Hartrees.
 NPDir=0 NMtPBC=     1 NCelOv=     1 NCel=       1 NClECP=     1 NCelD=      1
         NCelK=      1 NCelE2=     1 NClLst=     1 CellRange=     0.0.
 One-electron integrals computed using PRISM.
 Entering OneElI...
 Calculate overlap and kinetic energy integrals
    NBasis =  28  MinDer = 0  MaxDer = 0
 Requested accuracy = 0.1000D-12
 PrmmSu-InSpLW:  IPartL=    0 NPrtUS=    1 NPrtUL=    1 DoSpLW=F IThBeg=    0 IThEnd=    0 NThAct=    1.
 PrSmSu:  IncTry=   512 NBBP=            136 NTPThr=   100 NPartT=    1 Incr=           1 LDynOK=F GPUOK=F.
 PrsmSu:  NPrtUS=   1 ThrOK=F IAlg=2 LenDen=           0 ISkipM=0 DoSpLW=F IThBeg=    0 IThEnd=    0.
 Prism:   IPart=     0 DynPar=F LinDyn=F Incr=           1.
 PRISM was handed   671068153 working-precision words and   136 shell-pairs
 IPart=  0 NShTot=         136 NBatch=           9 AvBLen=        15.1
 PrSmSu:  NxtVal=              2.
 *** Overlap *** 
                1             2             3             4             5 
      1  0.100000D+01
      2  0.248362D+00  0.100000D+01
      3  0.000000D+00  0.000000D+00  0.100000D+01
      4  0.000000D+00  0.000000D+00  0.000000D+00  0.100000D+01
      5  0.000000D+00  0.000000D+00  0.000000D+00  0.000000D+00  0.100000D+01
      6  0.000000D+00  0.123695D-03 -0.206153D-03 -0.157508D-03  0.229220D-04
      7  0.000000D+00  0.232513D-03 -0.388971D-03 -0.262941D-03 -0.571533D-04
      8  0.000000D+00  0.186929D-01 -0.228909D-01  0.227135D-01 -0.372738D-03
      9  0.186929D-01  0.242052D+00 -0.203566D+00  0.201989D+00 -0.331472D-02
     10  0.228909D-01  0.203566D+00 -0.829020D-01  0.207600D+00 -0.340681D-02
     11 -0.227135D-01 -0.201989D+00  0.207600D+00 -0.796712D-01  0.338041D-02
     12  0.372738D-03  0.331472D-02 -0.340681D-02  0.338041D-02  0.126264D+00
     13  0.811467D-02  0.130298D+00 -0.791985D-01  0.110262D+00  0.876835D-01
     14  0.345127D-02  0.705230D-01 -0.471261D-01  0.745806D-01 -0.343648D-01
     15  0.997341D+00  0.248377D+00  0.156449D-01  0.577935D-02  0.539858D-02
     16  0.248377D+00  0.999921D+00  0.998551D-02  0.368872D-02  0.344570D-02
     17 -0.156449D-01 -0.998551D-02  0.999614D+00 -0.875298D-04 -0.817630D-04
     18 -0.577935D-02 -0.368872D-02 -0.875298D-04  0.999819D+00 -0.302039D-04
     19 -0.539858D-02 -0.344570D-02 -0.817630D-04 -0.302039D-04  0.999823D+00
     20  0.000000D+00  0.118484D-03 -0.197881D-03 -0.151380D-03  0.212781D-04
     21  0.000000D+00  0.201668D-03 -0.341193D-03 -0.228629D-03 -0.477820D-04
     22  0.000000D+00  0.187373D-01 -0.229594D-01  0.227421D-01 -0.393473D-03
     23  0.187373D-01  0.242396D+00 -0.203965D+00  0.202035D+00 -0.349551D-02
     24  0.229594D-01  0.203965D+00 -0.832433D-01  0.207800D+00 -0.359526D-02
     25 -0.227421D-01 -0.202035D+00  0.207800D+00 -0.792912D-01  0.356123D-02
     26  0.393473D-03  0.349551D-02 -0.359526D-02  0.356123D-02  0.126480D+00
     27  0.750538D-02  0.123101D+00 -0.750863D-01  0.105826D+00  0.827457D-01
     28  0.321300D-02  0.670599D-01 -0.450153D-01  0.718456D-01 -0.318372D-01
                6             7             8             9            10 
      6  0.100000D+01
      7  0.477029D+00  0.100000D+01
      8  0.000000D+00  0.000000D+00  0.100000D+01
      9  0.988627D-04  0.246382D-03  0.248362D+00  0.100000D+01
     10 -0.112729D-03 -0.282365D-03  0.000000D+00  0.000000D+00  0.100000D+01
     11 -0.176927D-03 -0.407939D-03  0.000000D+00  0.000000D+00  0.000000D+00
     12  0.191245D-04 -0.584890D-04  0.000000D+00  0.000000D+00  0.000000D+00
     13  0.704363D-04  0.850576D-04  0.561136D-01  0.465362D+00  0.851943D-01
     14  0.183095D-04  0.762029D-04  0.679203D-01  0.512331D+00  0.143502D-01
     15  0.000000D+00  0.000000D+00  0.000000D+00  0.184542D-01  0.227637D-01
     16  0.119494D-03  0.224264D-03  0.184542D-01  0.240197D+00  0.203562D+00
     17 -0.199643D-03 -0.376054D-03 -0.227637D-01 -0.203562D+00 -0.854807D-01
     18 -0.152314D-03 -0.253886D-03  0.223137D-01  0.199539D+00  0.206443D+00
     19  0.219438D-04 -0.554640D-04 -0.436716D-03 -0.390530D-02 -0.404044D-02
     20  0.999662D+00  0.481787D+00  0.000000D+00  0.946111D-04 -0.108234D-03
     21  0.489199D+00  0.997359D+00  0.000000D+00  0.220564D-03 -0.257253D-03
     22  0.000000D+00  0.000000D+00  0.999925D+00  0.248363D+00 -0.554045D-03
     23  0.993636D-04  0.247709D-03  0.248363D+00  0.999998D+00 -0.353448D-03
     24 -0.113289D-03 -0.283865D-03  0.554045D-03  0.353448D-03  0.999996D+00
     25 -0.177758D-03 -0.409981D-03  0.246357D-02  0.157161D-02 -0.132015D-05
     26  0.192669D-04 -0.586956D-04  0.151191D-02  0.964507D-03  0.000000D+00
     27  0.657122D-04  0.795197D-04  0.546851D-01  0.459166D+00  0.790862D-01
     28  0.171447D-04  0.710864D-04  0.667112D-01  0.507832D+00  0.904227D-02
               11            12            13            14            15 
     11  0.100000D+01
     12  0.000000D+00  0.100000D+01
     13  0.708205D-01  0.437732D+00  0.100000D+01
     14  0.297391D+00 -0.376118D+00  0.120884D+00  0.100000D+01
     15 -0.223137D-01  0.436716D-03  0.810359D-02  0.341813D-02  0.100000D+01
     16 -0.199539D+00  0.390530D-02  0.130168D+00  0.700450D-01  0.248362D+00
     17  0.206443D+00 -0.404044D-02 -0.799668D-01 -0.472009D-01  0.000000D+00
     18 -0.772366D-01  0.396057D-02  0.109819D+00  0.738639D-01  0.000000D+00
     19  0.396057D-02  0.125048D+00  0.872869D-01 -0.342550D-01  0.000000D+00
     20 -0.169708D-03  0.177618D-04  0.670158D-04  0.176509D-04  0.000000D+00
     21 -0.365737D-03 -0.504220D-04  0.775714D-04  0.681232D-04  0.000000D+00
     22 -0.246357D-02 -0.151191D-02  0.559405D-01  0.678815D-01  0.000000D+00
     23 -0.157161D-02 -0.964507D-03  0.464618D+00  0.512187D+00  0.184976D-01
     24 -0.132015D-05  0.000000D+00  0.851536D-01  0.145153D-01  0.228309D-01
     25  0.999990D+00 -0.360250D-05  0.713251D-01  0.298032D+00 -0.223409D-01
     26 -0.360250D-05  0.999994D+00  0.437164D+00 -0.375502D+00  0.457324D-03
     27  0.824484D-01  0.432690D+00  0.998832D+00  0.121103D+00  0.749549D-02
     28  0.308885D+00 -0.363612D+00  0.122341D+00  0.998579D+00  0.318245D-02
               16            17            18            19            20 
     16  0.100000D+01
     17  0.000000D+00  0.100000D+01
     18  0.000000D+00  0.000000D+00  0.100000D+01
     19  0.000000D+00  0.000000D+00  0.000000D+00  0.100000D+01
     20  0.114445D-03 -0.191608D-03 -0.146370D-03  0.203621D-04  0.100000D+01
     21  0.194453D-03 -0.329755D-03 -0.220690D-03 -0.463670D-04  0.494327D+00
     22  0.184976D-01 -0.228309D-01  0.223409D-01 -0.457324D-03  0.000000D+00
     23  0.240535D+00 -0.203957D+00  0.199580D+00 -0.408544D-02  0.950926D-04
     24  0.203957D+00 -0.858239D-01  0.206635D+00 -0.422986D-02 -0.108774D-03
     25 -0.199580D+00  0.206635D+00 -0.768571D-01  0.413908D-02 -0.170509D-03
     26  0.408544D-02 -0.422986D-02  0.413908D-02  0.125258D+00  0.178957D-04
     27  0.122983D+00 -0.758087D-01  0.105413D+00  0.823773D-01  0.625090D-04
     28  0.666112D-01 -0.450878D-01  0.711660D-01 -0.317419D-01  0.165233D-04
               21            22            23            24            25 
     21  0.100000D+01
     22  0.000000D+00  0.100000D+01
     23  0.221753D-03  0.248362D+00  0.100000D+01
     24 -0.258621D-03  0.000000D+00  0.000000D+00  0.100000D+01
     25 -0.367571D-03  0.000000D+00  0.000000D+00  0.000000D+00  0.100000D+01
     26 -0.505968D-04  0.000000D+00  0.000000D+00  0.000000D+00  0.000000D+00
     27  0.725397D-04  0.545117D-01  0.458405D+00  0.790505D-01  0.829088D-01
     28  0.635725D-04  0.666631D-01  0.507652D+00  0.920638D-02  0.309480D+00
               26            27            28 
     26  0.100000D+01
     27  0.432094D+00  0.100000D+01
     28 -0.362968D+00  0.122703D+00  0.100000D+01
 *** Kinetic Energy *** 
                1             2             3             4             5 
      1  0.158911D+02
      2 -0.858900D-01  0.472250D+00
      3  0.000000D+00  0.000000D+00  0.147773D+01
      4  0.000000D+00  0.000000D+00  0.000000D+00  0.147773D+01
      5  0.000000D+00  0.000000D+00  0.000000D+00  0.000000D+00  0.147773D+01
      6  0.000000D+00 -0.154374D-03  0.223872D-03  0.171045D-03 -0.248921D-04
      7 -0.136463D-05 -0.264159D-03  0.381185D-03  0.257677D-03  0.560093D-04
      8  0.000000D+00 -0.726476D-02  0.582323D-02 -0.577810D-02  0.948212D-04
      9 -0.726476D-02  0.426177D-02 -0.466548D-01  0.462932D-01 -0.759692D-03
     10 -0.582323D-02  0.466548D-01 -0.695660D-01  0.925373D-01 -0.151858D-02
     11  0.577810D-02 -0.462932D-01  0.925373D-01 -0.681259D-01  0.150681D-02
     12 -0.948212D-04  0.759692D-03 -0.151858D-02  0.150681D-02  0.236694D-01
     13 -0.276429D-02 -0.131697D-01 -0.400064D-02  0.556980D-02  0.442925D-02
     14 -0.191306D-02 -0.147505D-01  0.290991D-02 -0.460515D-02  0.212194D-02
     15  0.157442D+02 -0.851812D-01  0.899998D-01  0.332466D-01  0.310562D-01
     16 -0.851812D-01  0.472150D+00  0.653825D-02  0.241528D-02  0.225615D-02
     17 -0.899998D-01 -0.653825D-02  0.147646D+01 -0.288788D-03 -0.269762D-03
     18 -0.332466D-01 -0.241528D-02 -0.288788D-03  0.147713D+01 -0.996521D-04
     19 -0.310562D-01 -0.225615D-02 -0.269762D-03 -0.996521D-04  0.147714D+01
     20  0.000000D+00 -0.148784D-03  0.216338D-03  0.165500D-03 -0.232628D-04
     21 -0.109913D-05 -0.234169D-03  0.342433D-03  0.229460D-03  0.479557D-04
     22  0.000000D+00 -0.727001D-02  0.583899D-02 -0.578372D-02  0.100067D-03
     23 -0.727001D-02  0.435135D-02 -0.468386D-01  0.463953D-01 -0.802710D-03
     24 -0.583899D-02  0.468386D-01 -0.698610D-01  0.927678D-01 -0.160503D-02
     25  0.578372D-02 -0.463953D-01  0.927678D-01 -0.680966D-01  0.158984D-02
     26 -0.100067D-03  0.802710D-03 -0.160503D-02  0.158984D-02  0.237657D-01
     27 -0.266817D-02 -0.137230D-01 -0.296018D-02  0.417205D-02  0.326214D-02
     28 -0.184904D-02 -0.145990D-01  0.317731D-02 -0.507106D-02  0.224716D-02
                6             7             8             9            10 
      6  0.760032D+00
      7  0.993882D-01  0.760032D+00
      8  0.000000D+00 -0.148999D-05  0.158911D+02
      9 -0.127358D-03 -0.277410D-03 -0.858900D-01  0.472250D+00
     10  0.126732D-03  0.274007D-03  0.000000D+00  0.000000D+00  0.147773D+01
     11  0.198904D-03  0.395863D-03  0.000000D+00  0.000000D+00  0.000000D+00
     12 -0.215001D-04  0.567576D-04  0.000000D+00  0.000000D+00  0.000000D+00
     13 -0.792000D-04 -0.932023D-04 -0.117027D-01  0.928768D-01  0.442322D-01
     14 -0.244436D-04 -0.847706D-04 -0.891730D-02  0.119406D+00  0.851145D-02
     15  0.000000D+00 -0.129179D-05  0.000000D+00 -0.723635D-02 -0.579994D-02
     16 -0.149870D-03 -0.256211D-03 -0.723635D-02  0.378158D-02  0.461561D-01
     17  0.217976D-03  0.370779D-03  0.579994D-02 -0.461561D-01 -0.699409D-01
     18  0.166300D-03  0.250324D-03 -0.568529D-02  0.452437D-01  0.912645D-01
     19 -0.239589D-04  0.546860D-04  0.111271D-03 -0.885494D-03 -0.178620D-02
     20  0.759135D+00  0.102243D+00  0.000000D+00 -0.122629D-03  0.122495D-03
     21  0.106769D+00  0.753051D+00 -0.125954D-05 -0.252629D-03  0.254355D-03
     22  0.000000D+00 -0.150217D-05  0.158870D+02 -0.858700D-01 -0.318920D-02
     23 -0.127913D-03 -0.278671D-03 -0.858700D-01  0.472247D+00 -0.231328D-03
     24  0.127263D-03  0.275210D-03  0.318920D-02  0.231328D-03  0.147771D+01
     25  0.199685D-03  0.397481D-03  0.141808D-01  0.102860D-02 -0.435679D-05
     26 -0.216435D-04  0.569060D-04  0.870287D-02  0.631260D-03 -0.267379D-05
     27 -0.745852D-04 -0.879456D-04 -0.118834D-01  0.895912D-01  0.403011D-01
     28 -0.230685D-04 -0.798313D-04 -0.930178D-02  0.116740D+00  0.529846D-02
               11            12            13            14            15 
     11  0.147773D+01
     12  0.000000D+00  0.147773D+01
     13  0.367694D-01  0.227267D+00  0.760032D+00
     14  0.176390D+00 -0.223085D+00 -0.100059D-01  0.760032D+00
     15  0.568529D-02 -0.111271D-03 -0.276253D-02 -0.190440D-02  0.158911D+02
     16 -0.452437D-01  0.885494D-03 -0.131805D-01 -0.147315D-01 -0.858900D-01
     17  0.912645D-01 -0.178620D-02 -0.402374D-02  0.297091D-02  0.000000D+00
     18 -0.662964D-01  0.175089D-02  0.552583D-02 -0.464913D-02  0.000000D+00
     19  0.175089D-02  0.231297D-01  0.439207D-02  0.215608D-02  0.000000D+00
     20  0.192069D-03 -0.201021D-04 -0.758635D-04 -0.236676D-04  0.000000D+00
     21  0.361617D-03  0.498540D-04 -0.860831D-04 -0.769464D-04 -0.103980D-05
     22 -0.141808D-01 -0.870287D-02 -0.117265D-01 -0.892995D-02  0.000000D+00
     23 -0.102860D-02 -0.631260D-03  0.924797D-01  0.119321D+00 -0.724155D-02
     24 -0.435679D-05 -0.267379D-05  0.441127D-01  0.860607D-02 -0.581539D-02
     25  0.147769D+01 -0.118890D-04  0.369490D-01  0.176702D+00  0.569058D-02
     26 -0.118890D-04  0.147771D+01  0.226467D+00 -0.222634D+00 -0.116487D-03
     27  0.420144D-01  0.220492D+00  0.756937D+00 -0.999210D-02 -0.266662D-02
     28  0.180996D+00 -0.213064D+00 -0.991264D-02  0.756267D+00 -0.184053D-02
               16            17            18            19            20 
     16  0.472250D+00
     17  0.000000D+00  0.147773D+01
     18  0.000000D+00  0.000000D+00  0.147773D+01
     19  0.000000D+00  0.000000D+00  0.000000D+00  0.147773D+01
     20 -0.144424D-03  0.210612D-03  0.160887D-03 -0.223817D-04  0.760032D+00
     21 -0.227042D-03  0.332958D-03  0.222833D-03  0.468174D-04  0.109956D+00
     22 -0.724155D-02  0.581539D-02 -0.569058D-02  0.116487D-03  0.000000D+00
     23  0.386878D-02 -0.463366D-01  0.453421D-01 -0.928161D-03 -0.123166D-03
     24  0.463366D-01 -0.702337D-01  0.914873D-01 -0.187276D-02  0.123011D-03
     25 -0.453421D-01  0.914873D-01 -0.662636D-01  0.183257D-02  0.192827D-03
     26  0.928161D-03 -0.187276D-02  0.183257D-02  0.232227D-01 -0.202381D-04
     27 -0.137314D-01 -0.297461D-02  0.413624D-02  0.323236D-02 -0.714280D-04
     28 -0.145770D-01  0.323548D-02 -0.510683D-02  0.227778D-02 -0.223299D-04
               21            22            23            24            25 
     21  0.760032D+00
     22 -0.126988D-05  0.158911D+02
     23 -0.253781D-03 -0.858900D-01  0.472250D+00
     24  0.255477D-03  0.000000D+00  0.000000D+00  0.147773D+01
     25  0.363102D-03  0.000000D+00  0.000000D+00  0.000000D+00  0.147773D+01
     26  0.499816D-04  0.000000D+00  0.000000D+00  0.000000D+00  0.000000D+00
     27 -0.812397D-04 -0.119029D-01  0.891913D-01  0.401899D-01  0.421515D-01
     28 -0.724789D-04 -0.931661D-02  0.116634D+00  0.539198D-02  0.181256D+00
               26            27            28 
     26  0.147773D+01
     27  0.219680D+00  0.760032D+00
     28 -0.212583D+00 -0.988907D-02  0.760032D+00
 Entering OneElI...
 Calculate potential energy integrals
    NBasis =  28  MinDer = 0  MaxDer = 0
 Requested accuracy = 0.1000D-12
 PrmmSu-InSpLW:  IPartL=    0 NPrtUS=    1 NPrtUL=    1 DoSpLW=F IThBeg=    0 IThEnd=    0 NThAct=    1.
 PrSmSu:  IncTry=   512 NBBP=           1632 NTPThr=   100 NPartT=    1 Incr=          16 LDynOK=F GPUOK=F.
 PrsmSu:  NPrtUS=   1 ThrOK=F IAlg=2 LenDen=           0 ISkipM=0 DoSpLW=F IThBeg=    0 IThEnd=    0.
 Prism:   IPart=     0 DynPar=F LinDyn=F Incr=          16.
 PRISM was handed   671068832 working-precision words and   136 shell-pairs
 IPart=  0 NShTot=        1632 NBatch=         136 AvBLen=        12.0
 PrSmSu:  NxtVal=             17.
 ***** Potential Energy ***** 
                1             2             3             4             5 
      1  0.722876D+02
      2  0.967213D+01  0.155921D+02
      3  0.639411D-01 -0.769619D+00  0.155978D+02
      4  0.121436D+00  0.846881D+00 -0.304069D+00  0.156142D+02
      5  0.487606D-01  0.433965D-01 -0.275198D-02  0.629594D-02  0.153099D+02
      6  0.457411D-05  0.887439D-03 -0.143990D-02 -0.104971D-02  0.155435D-03
      7  0.133681D-04  0.173833D-02 -0.282407D-02 -0.180450D-02 -0.401596D-03
      8  0.000000D+00  0.755243D+00 -0.929792D+00  0.922769D+00 -0.151684D-01
      9  0.736632D+00  0.377040D+01 -0.324573D+01  0.324154D+01 -0.357141D-01
     10  0.907919D+00  0.320992D+01 -0.152696D+01  0.320107D+01 -0.383223D-01
     11 -0.899330D+00 -0.315908D+01  0.315952D+01 -0.146252D+01  0.387918D-01
     12  0.152103D-01  0.709662D-01 -0.685509D-01  0.694627D-01  0.170268D+01
     13  0.320543D+00  0.180910D+01 -0.117050D+01  0.154998D+01  0.106156D+01
     14  0.135027D+00  0.100316D+01 -0.723810D+00  0.105599D+01 -0.412000D+00
     15  0.721037D+02  0.967007D+01  0.593518D+00  0.316433D+00  0.231349D+00
     16  0.967321D+01  0.155848D+02 -0.643378D+00  0.890069D+00  0.861314D-01
     17 -0.738661D+00 -0.103466D+01  0.155833D+02 -0.319271D+00 -0.861942D-02
     18 -0.175261D+00  0.743824D+00 -0.292232D+00  0.156024D+02  0.821330D-02
     19 -0.228245D+00 -0.492948D-01 -0.123383D-02  0.161138D-02  0.153012D+02
     20  0.425102D-05  0.848442D-03 -0.137965D-02 -0.100741D-02  0.144031D-03
     21  0.105003D-04  0.149980D-02 -0.246456D-02 -0.156244D-02 -0.334145D-03
     22  0.000000D+00  0.756565D+00 -0.931815D+00  0.923628D+00 -0.157751D-01
     23  0.738399D+00  0.377563D+01 -0.325143D+01  0.324272D+01 -0.380564D-01
     24  0.910631D+00  0.321704D+01 -0.153310D+01  0.320527D+01 -0.409084D-01
     25 -0.900456D+00 -0.315813D+01  0.316023D+01 -0.145538D+01  0.412291D-01
     26  0.160340D-01  0.750381D-01 -0.728326D-01  0.736231D-01  0.170555D+01
     27  0.296297D+00  0.170749D+01 -0.110965D+01  0.148395D+01  0.100007D+01
     28  0.125601D+00  0.955120D+00 -0.692879D+00  0.101731D+01 -0.381797D+00
                6             7             8             9            10 
      6  0.648977D+01
      7  0.299837D+01  0.663183D+01
      8  0.323186D-05  0.152417D-04  0.734592D+02
      9  0.724389D-03  0.186281D-02  0.991424D+01  0.164813D+02
     10 -0.766112D-03 -0.197183D-02  0.606574D-01  0.746387D+00  0.163317D+02
     11 -0.125408D-02 -0.297998D-02 -0.565944D-01 -0.456024D+00 -0.259938D+00
     12  0.133199D-03 -0.413818D-03 -0.101220D-01  0.389324D-01  0.412107D-01
     13  0.467241D-03  0.606504D-03  0.227359D+01  0.666651D+01  0.139542D+01
     14  0.129109D-03  0.534652D-03  0.275838D+01  0.729494D+01  0.414327D+00
     15  0.437741D-05  0.127719D-04  0.000000D+00  0.729580D+00  0.903994D+00
     16  0.858571D-03  0.167966D-02  0.745498D+00  0.374143D+01  0.320643D+01
     17 -0.139649D-02 -0.273510D-02 -0.924629D+00 -0.325526D+01 -0.157462D+01
     18 -0.101636D-02 -0.174499D-02  0.906519D+00  0.319525D+01  0.317407D+01
     19  0.148731D-03 -0.390768D-03 -0.177698D-01 -0.493503D-01 -0.528128D-01
     20  0.648730D+01  0.302772D+01  0.299884D-05  0.691905D-03 -0.734487D-03
     21  0.307252D+01  0.661102D+01  0.126321D-04  0.165652D-02 -0.178769D-02
     22  0.325280D-05  0.153455D-04  0.734545D+02  0.991447D+01  0.414712D-01
     23  0.727898D-03  0.187233D-02  0.991427D+01  0.164817D+02  0.742118D+00
     24 -0.769781D-03 -0.198187D-02  0.896644D-01  0.756881D+00  0.163325D+02
     25 -0.125969D-02 -0.299407D-02  0.722888D-01 -0.412560D+00 -0.258513D+00
     26  0.134221D-03 -0.415023D-03  0.689743D-01  0.656781D-01  0.420938D-01
     27  0.436362D-03  0.567800D-03  0.221469D+01  0.654908D+01  0.130408D+01
     28  0.121112D-03  0.499859D-03  0.270808D+01  0.720881D+01  0.341370D+00
               11            12            13            14            15 
     11  0.164344D+02
     12 -0.982281D-01  0.164218D+02
     13  0.741881D+00  0.585755D+01  0.120742D+02
     14  0.381551D+01 -0.501250D+01  0.163359D+01  0.119827D+02
     15 -0.887678D+00  0.170187D-01  0.320118D+00  0.134041D+00  0.722749D+02
     16 -0.312418D+01  0.785104D-01  0.180552D+01  0.996021D+00  0.966896D+01
     17  0.315547D+01 -0.776498D-01 -0.118497D+01 -0.726585D+00 -0.209023D+00
     18 -0.141828D+01  0.772218D-01  0.153931D+01  0.104381D+01  0.198523D-01
     19  0.525189D-01  0.168564D+01  0.105341D+01 -0.411824D+00 -0.456100D-01
     20 -0.120075D-02  0.123501D-03  0.443999D-03  0.124166D-03  0.406749D-05
     21 -0.265515D-02 -0.354570D-03  0.548952D-03  0.475025D-03  0.100273D-04
     22 -0.142267D+00 -0.626994D-01  0.226854D+01  0.275728D+01  0.000000D+00
     23 -0.477133D+00  0.260375D-01  0.665750D+01  0.729336D+01  0.731317D+00
     24 -0.261722D+00  0.403824D-01  0.139610D+01  0.418161D+00  0.906670D+00
     25  0.164348D+02 -0.978169D-01  0.754507D+00  0.383078D+01 -0.888765D+00
     26 -0.989631D-01  0.164215D+02  0.585370D+01 -0.500032D+01  0.178384D-01
     27  0.892264D+00  0.576489D+01  0.120099D+02  0.162668D+01  0.295914D+00
     28  0.395188D+01 -0.483710D+01  0.164333D+01  0.119325D+02  0.124692D+00
               16            17            18            19            20 
     16  0.155795D+02
     17 -0.908562D+00  0.155882D+02
     18  0.787150D+00 -0.301978D+00  0.155972D+02
     19 -0.655788D-02 -0.196825D-02  0.543776D-02  0.152988D+02
     20  0.820737D-03 -0.133787D-02 -0.975271D-03  0.137759D-03  0.648907D+01
     21  0.144870D-02 -0.238608D-02 -0.151043D-02 -0.325120D-03  0.310400D+01
     22  0.746790D+00 -0.926617D+00  0.907339D+00 -0.183729D-01  0.301836D-05
     23  0.374658D+01 -0.326094D+01  0.319634D+01 -0.516947D-01  0.695272D-03
     24  0.321347D+01 -0.158081D+01  0.317813D+01 -0.554274D-01 -0.738022D-03
     25 -0.312319D+01  0.315610D+01 -0.141116D+01  0.549251D-01 -0.120616D-02
     26  0.825562D-01 -0.819488D-01  0.813186D-01  0.168843D+01  0.124462D-03
     27  0.170414D+01 -0.112317D+01  0.147392D+01  0.992472D+00  0.414576D-03
     28  0.948372D+00 -0.695490D+00  0.100573D+01 -0.381728D+00  0.116442D-03
               21            22            23            24            25 
     21  0.662399D+01
     22  0.127184D-04  0.734600D+02
     23  0.166501D-02  0.991443D+01  0.164822D+02
     24 -0.179681D-02  0.704803D-01  0.752616D+00  0.163334D+02
     25 -0.266774D-02 -0.133830D-01 -0.433672D+00 -0.260212D+00  0.164358D+02
     26 -0.355578D-03  0.163979D-01  0.527840D-01  0.413187D-01 -0.983194D-01
     27  0.514026D-03  0.220964D+01  0.653990D+01  0.130478D+01  0.904195D+00
     28  0.444245D-03  0.270671D+01  0.720680D+01  0.345139D+00  0.396645D+01
               26            27            28 
     26  0.164215D+02
     27  0.576064D+01  0.119729D+02
     28 -0.482466D+01  0.163802D+01  0.119147D+02
 ****** Core Hamiltonian ****** 
                1             2             3             4             5 
      1 -0.563965D+02
      2 -0.975802D+01 -0.151198D+02
      3 -0.639411D-01  0.769619D+00 -0.141200D+02
      4 -0.121436D+00 -0.846881D+00  0.304069D+00 -0.141365D+02
      5 -0.487606D-01 -0.433965D-01  0.275198D-02 -0.629594D-02 -0.138322D+02
      6 -0.509448D-05 -0.104181D-02  0.166378D-02  0.122075D-02 -0.180327D-03
      7 -0.147327D-04 -0.200249D-02  0.320526D-02  0.206218D-02  0.457606D-03
      8  0.000000D+00 -0.762507D+00  0.935615D+00 -0.928547D+00  0.152633D-01
      9 -0.743897D+00 -0.376614D+01  0.319907D+01 -0.319525D+01  0.349544D-01
     10 -0.913743D+00 -0.316327D+01  0.145739D+01 -0.310854D+01  0.368038D-01
     11  0.905108D+00  0.311279D+01 -0.306698D+01  0.139440D+01 -0.372850D-01
     12 -0.153052D-01 -0.702065D-01  0.670323D-01 -0.679559D-01 -0.167901D+01
     13 -0.323307D+00 -0.182227D+01  0.116650D+01 -0.154441D+01 -0.105713D+01
     14 -0.136940D+00 -0.101791D+01  0.726720D+00 -0.106060D+01  0.414122D+00
     15 -0.563595D+02 -0.975525D+01 -0.503518D+00 -0.283186D+00 -0.200292D+00
     16 -0.975839D+01 -0.151126D+02  0.649917D+00 -0.887653D+00 -0.838753D-01
     17  0.648661D+00  0.102812D+01 -0.141068D+02  0.318982D+00  0.834966D-02
     18  0.142014D+00 -0.746239D+00  0.291944D+00 -0.141253D+02 -0.831295D-02
     19  0.197188D+00  0.470386D-01  0.964063D-03 -0.171103D-02 -0.138241D+02
     20 -0.473807D-05 -0.997226D-03  0.159599D-02  0.117291D-02 -0.167293D-03
     21 -0.115994D-04 -0.173397D-02  0.280699D-02  0.179190D-02  0.382101D-03
     22  0.000000D+00 -0.763835D+00  0.937654D+00 -0.929412D+00  0.158752D-01
     23 -0.745669D+00 -0.377128D+01  0.320459D+01 -0.319632D+01  0.372537D-01
     24 -0.916470D+00 -0.317020D+01  0.146324D+01 -0.311250D+01  0.393033D-01
     25  0.906240D+00  0.311173D+01 -0.306746D+01  0.138728D+01 -0.396393D-01
     26 -0.161340D-01 -0.742354D-01  0.712276D-01 -0.720333D-01 -0.168178D+01
     27 -0.298965D+00 -0.172121D+01  0.110669D+01 -0.147978D+01 -0.996808D+00
     28 -0.127450D+00 -0.969719D+00  0.696056D+00 -0.102239D+01  0.384044D+00
                6             7             8             9            10 
      6 -0.572973D+01
      7 -0.289899D+01 -0.587180D+01
      8 -0.360041D-05 -0.167317D-04 -0.575680D+02
      9 -0.851747D-03 -0.214022D-02 -0.100001D+02 -0.160090D+02
     10  0.892844D-03  0.224584D-02 -0.606574D-01 -0.746387D+00 -0.148539D+02
     11  0.145298D-02  0.337584D-02  0.565944D-01  0.456024D+00  0.259938D+00
     12 -0.154699D-03  0.470575D-03  0.101220D-01 -0.389324D-01 -0.412107D-01
     13 -0.546441D-03 -0.699706D-03 -0.228529D+01 -0.657363D+01 -0.135119D+01
     14 -0.153552D-03 -0.619422D-03 -0.276730D+01 -0.717553D+01 -0.405816D+00
     15 -0.487086D-05 -0.140637D-04  0.000000D+00 -0.736816D+00 -0.909794D+00
     16 -0.100844D-02 -0.193587D-02 -0.752734D+00 -0.373765D+01 -0.316027D+01
     17  0.161446D-02  0.310588D-02  0.930429D+00  0.320911D+01  0.150468D+01
     18  0.118266D-02  0.199532D-02 -0.912205D+00 -0.315000D+01 -0.308281D+01
     19 -0.172690D-03  0.445454D-03  0.178811D-01  0.484648D-01  0.510266D-01
     20 -0.572817D+01 -0.292548D+01 -0.334322D-05 -0.814534D-03  0.856982D-03
     21 -0.296575D+01 -0.585797D+01 -0.138916D-04 -0.190915D-02  0.204204D-02
     22 -0.362423D-05 -0.168477D-04 -0.575675D+02 -0.100003D+02 -0.446604D-01
     23 -0.855810D-03 -0.215100D-02 -0.100001D+02 -0.160095D+02 -0.742349D+00
     24  0.897044D-03  0.225708D-02 -0.864752D-01 -0.756650D+00 -0.148548D+02
     25  0.145937D-02  0.339155D-02 -0.581080D-01  0.413588D+00  0.258509D+00
     26 -0.155865D-03  0.471929D-03 -0.602715D-01 -0.650469D-01 -0.420965D-01
     27 -0.510947D-03 -0.655745D-03 -0.222658D+01 -0.645949D+01 -0.126378D+01
     28 -0.144181D-03 -0.579690D-03 -0.271738D+01 -0.709207D+01 -0.336072D+00
               11            12            13            14            15 
     11 -0.149567D+02
     12  0.982281D-01 -0.149440D+02
     13 -0.705111D+00 -0.563028D+01 -0.113141D+02
     14 -0.363912D+01  0.478942D+01 -0.164360D+01 -0.112227D+02
     15  0.893363D+00 -0.171300D-01 -0.322881D+00 -0.135945D+00 -0.563837D+02
     16  0.307894D+01 -0.776249D-01 -0.181870D+01 -0.101075D+01 -0.975485D+01
     17 -0.306421D+01  0.758636D-01  0.118095D+01  0.729556D+00  0.209023D+00
     18  0.135198D+01 -0.754710D-01 -0.153378D+01 -0.104846D+01 -0.198523D-01
     19 -0.507680D-01 -0.166251D+01 -0.104902D+01  0.413980D+00  0.456100D-01
     20  0.139282D-02 -0.143603D-03 -0.519863D-03 -0.147833D-03 -0.452924D-05
     21  0.301677D-02  0.404424D-03 -0.635035D-03 -0.551972D-03 -0.110670D-04
     22  0.128086D+00  0.539965D-01 -0.228026D+01 -0.276621D+01  0.000000D+00
     23  0.476104D+00 -0.266687D-01 -0.656502D+01 -0.717404D+01 -0.738559D+00
     24  0.261717D+00 -0.403851D-01 -0.135198D+01 -0.409555D+00 -0.912486D+00
     25 -0.149571D+02  0.978050D-01 -0.717558D+00 -0.365407D+01  0.894456D+00
     26  0.989513D-01 -0.149438D+02 -0.562723D+01  0.477768D+01 -0.179549D-01
     27 -0.850250D+00 -0.554439D+01 -0.112530D+02 -0.163667D+01 -0.298581D+00
     28 -0.377088D+01  0.462403D+01 -0.165324D+01 -0.111763D+02 -0.126532D+00
               16            17            18            19            20 
     16 -0.151072D+02
     17  0.908562D+00 -0.141104D+02
     18 -0.787150D+00  0.301978D+00 -0.141195D+02
     19  0.655788D-02  0.196825D-02 -0.543776D-02 -0.138210D+02
     20 -0.965161D-03  0.154849D-02  0.113616D-02 -0.160140D-03 -0.572904D+01
     21 -0.167574D-02  0.271903D-02  0.173327D-02  0.371938D-03 -0.299405D+01
     22 -0.754032D+00  0.932433D+00 -0.913030D+00  0.184894D-01 -0.336545D-05
     23 -0.374271D+01  0.321460D+01 -0.315100D+01  0.507665D-01 -0.818439D-03
     24 -0.316714D+01  0.151058D+01 -0.308664D+01  0.535546D-01  0.861033D-03
     25  0.307785D+01 -0.306461D+01  0.134490D+01 -0.530925D-01  0.139898D-02
     26 -0.816281D-01  0.800761D-01 -0.794860D-01 -0.166521D+01 -0.144700D-03
     27 -0.171787D+01  0.112020D+01 -0.146978D+01 -0.989240D+00 -0.486004D-03
     28 -0.962949D+00  0.698725D+00 -0.101083D+01  0.384006D+00 -0.138772D-03
               21            22            23            24            25 
     21 -0.586396D+01
     22 -0.139883D-04 -0.575689D+02
     23 -0.191879D-02 -0.100003D+02 -0.160100D+02
     24  0.205229D-02 -0.704803D-01 -0.752616D+00 -0.148557D+02
     25  0.303084D-02  0.133830D-01  0.433672D+00  0.260212D+00 -0.149580D+02
     26  0.405560D-03 -0.163979D-01 -0.527840D-01 -0.413187D-01  0.983194D-01
     27 -0.595266D-03 -0.222154D+01 -0.645071D+01 -0.126459D+01 -0.862044D+00
     28 -0.516724D-03 -0.271603D+01 -0.709016D+01 -0.339747D+00 -0.378520D+01
               26            27            28 
     26 -0.149438D+02
     27 -0.554096D+01 -0.112129D+02
     28  0.461208D+01 -0.164790D+01 -0.111546D+02
 SVDSVc IOpt=   1 NormSV=T IR=1
 SVDSVc V= 4.04D+00 3.20D+00 2.97D+00 2.79D+00 2.33D+00 2.25D+00 1.94D+00 1.90D+00 1.73D+00 1.63D+00
 SVDSVc V= 1.03D+00 9.49D-01 6.85D-01 5.50D-01 2.56D-03 2.50D-03 1.24D-03 1.01D-03 3.03D-04 2.64D-04
 SVDSVc V= 1.48D-04 1.40D-04 6.96D-05 1.13D-05 6.54D-06 3.77D-06 3.08D-06 2.68D-07
 TstOVc:  Largest diagonal error= 2.19D-11 IB=1 I=   27.
 TstOVc:  Largest same sym error= 2.56D-11 IB=1 I=   26 J=   25.
 Orthogonalized basis functions: 
                 1             2             3             4             5 
      1   0.303119D-01  0.345893D-01  0.210338D-03 -0.135206D+00  0.244210D+00
      2   0.975108D-01  0.675465D-01  0.379643D-03 -0.191187D+00  0.174167D+00
      3  -0.643887D-01 -0.425770D-01 -0.516133D-03  0.921840D-01  0.261456D+00
      4   0.818422D-01  0.234587D-01 -0.319803D-03 -0.498214D-01 -0.522706D-01
      5   0.976545D-02  0.809388D-01 -0.319535D-03  0.807990D-01  0.378885D-01
      6   0.926264D-04  0.308430D-03  0.289832D+00  0.855785D-03  0.383463D-03
      7   0.118724D-03  0.301485D-03  0.288756D+00  0.772394D-03  0.250688D-03
      8   0.757317D-01 -0.202806D-01 -0.151900D-04  0.204650D-01 -0.942466D-01
      9   0.215653D+00 -0.330689D-01  0.250578D-04  0.202723D-01 -0.614816D-01
     10   0.563616D-01  0.521038D-01 -0.202643D-03 -0.121913D+00  0.690450D-01
     11   0.159822D-01 -0.129984D+00 -0.695002D-03  0.213487D+00  0.179424D+00
     12   0.167004D-01  0.243545D+00 -0.718677D-03  0.155589D+00  0.313544D-01
     13   0.159303D+00  0.134576D+00 -0.590610D-03  0.142678D+00  0.286330D-01
     14   0.146335D+00 -0.209136D+00  0.120301D-03  0.252881D-01  0.311318D-01
     15   0.300401D-01  0.345060D-01  0.202277D-03 -0.133969D+00  0.247673D+00
     16   0.971296D-01  0.674872D-01  0.370872D-03 -0.190056D+00  0.176828D+00
     17  -0.652483D-01 -0.434774D-01 -0.515709D-03  0.949595D-01  0.256258D+00
     18   0.812093D-01  0.231416D-01 -0.320066D-03 -0.483196D-01 -0.535956D-01
     19   0.940764D-02  0.803909D-01 -0.320481D-03  0.817523D-01  0.362748D-01
     20   0.920503D-04  0.308179D-03  0.290798D+00  0.859644D-03  0.386754D-03
     21   0.114933D-03  0.301839D-03  0.291174D+00  0.790572D-03  0.268654D-03
     22   0.756725D-01 -0.203343D-01 -0.131289D-04  0.199361D-01 -0.947161D-01
     23   0.215582D+00 -0.331236D-01  0.271985D-04  0.197845D-01 -0.618297D-01
     24   0.564670D-01  0.520855D-01 -0.202774D-03 -0.122002D+00  0.689679D-01
     25   0.163321D-01 -0.130081D+00 -0.695884D-03  0.213626D+00  0.179189D+00
     26   0.168831D-01  0.243402D+00 -0.718375D-03  0.155544D+00  0.311713D-01
     27   0.157798D+00  0.132030D+00 -0.596101D-03  0.145510D+00  0.301291D-01
     28   0.145640D+00 -0.208218D+00  0.106146D-03  0.298611D-01  0.334041D-01
                 6             7             8             9            10 
      1  -0.138969D+00  0.286674D-02  0.643203D-02 -0.620040D-01  0.376562D+00
      2  -0.841567D-01 -0.367742D-03 -0.348966D-02  0.279262D-01 -0.256157D+00
      3   0.661275D-01  0.218043D+00  0.614626D-01 -0.163947D+00 -0.220175D+00
      4   0.294767D+00  0.104593D+00  0.745403D-01 -0.286390D+00  0.147484D+00
      5  -0.164519D-01 -0.215134D+00  0.437784D+00 -0.115967D-01 -0.206537D-01
      6   0.580907D-03  0.175744D-03  0.117857D-03  0.933824D-04  0.145746D-03
      7   0.379827D-03  0.106480D-03  0.229205D-04 -0.371004D-04  0.144323D-04
      8  -0.113014D+00  0.370238D+00  0.197332D+00  0.188425D+00  0.681176D-01
      9  -0.686563D-01  0.350567D-02 -0.149768D-01 -0.835576D-01 -0.508779D-01
     10   0.285681D+00 -0.148954D-01  0.177178D-01  0.322256D+00 -0.136869D-01
     11   0.740696D-01 -0.274447D-01 -0.423018D-01  0.165357D+00  0.131806D+00
     12  -0.105995D-01  0.435934D-01 -0.874614D-01  0.222605D-01  0.414588D-01
     13  -0.268769D-02 -0.316932D-01 -0.110695D+00 -0.176541D-01 -0.340582D-01
     14  -0.367408D-02 -0.107722D+00  0.645046D-02 -0.177622D-01 -0.250462D-01
     15  -0.136581D+00  0.580630D-02  0.103612D-01 -0.669000D-01  0.373284D+00
     16  -0.823453D-01  0.142426D-02 -0.114304D-02  0.253918D-01 -0.257760D+00
     17   0.680498D-01  0.218092D+00  0.615238D-01 -0.164245D+00 -0.224352D+00
     18   0.295803D+00  0.104471D+00  0.743176D-01 -0.285853D+00  0.146591D+00
     19  -0.156024D-01 -0.215247D+00  0.437861D+00 -0.114091D-01 -0.219627D-01
     20   0.587036D-03  0.178988D-03  0.118615D-03  0.930109D-04  0.147838D-03
     21   0.410850D-03  0.120674D-03  0.335198D-04 -0.364368D-04  0.281723D-04
     22  -0.113302D+00  0.370250D+00  0.197577D+00  0.187719D+00  0.676706D-01
     23  -0.688783D-01  0.350957D-02 -0.148437D-01 -0.839255D-01 -0.511064D-01
     24   0.285599D+00 -0.147134D-01  0.177387D-01  0.322349D+00 -0.136265D-01
     25   0.738374D-01 -0.265393D-01 -0.417436D-01  0.165554D+00  0.131886D+00
     26  -0.107947D-01  0.440520D-01 -0.869910D-01  0.224723D-01  0.415604D-01
     27  -0.314296D-02 -0.312129D-01 -0.113387D+00 -0.169891D-01 -0.318865D-01
     28  -0.433295D-02 -0.108304D+00  0.542603D-02 -0.167048D-01 -0.225000D-01
                11            12            13            14            15 
      1   0.791886D-04 -0.144662D+00  0.329853D-01  0.280764D-01  0.112439D+00
      2  -0.168208D-03  0.373363D+00 -0.123993D+00 -0.113892D+00 -0.585807D-02
      3   0.134830D-03 -0.226126D+00  0.100994D+00  0.809911D-01  0.509173D-02
      4   0.287703D-04  0.212637D+00 -0.809710D-01 -0.992485D-01  0.413284D-02
      5   0.622043D-04 -0.503553D-02 -0.155886D-01  0.295532D-01  0.118676D-02
      6  -0.495327D+00 -0.127156D-03  0.155595D-05  0.101986D-04 -0.138238D+01
      7   0.499512D+00  0.135549D-03  0.303369D-05  0.197792D-04 -0.138663D+02
      8   0.516645D-04  0.252608D-01 -0.575412D-01 -0.151439D+00 -0.517844D-03
      9  -0.900527D-04 -0.398610D-01  0.193755D+00  0.666285D+00  0.417904D-03
     10   0.230982D-03 -0.215345D+00  0.129363D+00  0.104051D+00 -0.483241D-03
     11   0.928191D-04  0.338913D+00 -0.180015D+00  0.185523D+00 -0.116471D-02
     12   0.334105D-05  0.167159D+00  0.511336D+00 -0.143223D+00 -0.196559D-03
     13   0.576775D-04 -0.269589D+00 -0.470558D+00 -0.227276D+00  0.363098D-03
     14  -0.496704D-05 -0.773426D-01  0.336690D+00 -0.537233D+00  0.410977D-03
     15   0.844388D-04 -0.149234D+00  0.356986D-01  0.309054D-01 -0.112602D+00
     16  -0.167640D-03  0.372448D+00 -0.123774D+00 -0.113899D+00  0.603411D-02
     17   0.139738D-03 -0.228573D+00  0.102673D+00  0.827273D-01 -0.380832D-02
     18   0.325996D-04  0.214534D+00 -0.824857D-01 -0.101428D+00 -0.410188D-02
     19   0.647382D-04 -0.555343D-02 -0.169390D-01  0.299076D-01 -0.696575D-03
     20  -0.490578D+00 -0.125995D-03  0.197158D-05  0.138021D-04  0.116078D+01
     21   0.487627D+00  0.130106D-03  0.664537D-05  0.281983D-04  0.139679D+02
     22   0.509140D-04  0.234034D-01 -0.585621D-01 -0.152350D+00  0.408122D-03
     23  -0.900757D-04 -0.402454D-01  0.193654D+00  0.666243D+00  0.752194D-04
     24   0.229896D-03 -0.214805D+00  0.129410D+00  0.103958D+00  0.160744D-03
     25   0.918654D-04  0.338587D+00 -0.179629D+00  0.186308D+00  0.337542D-03
     26   0.286439D-05  0.167694D+00  0.512892D+00 -0.142650D+00  0.654818D-04
     27   0.597742D-04 -0.269291D+00 -0.484470D+00 -0.228707D+00 -0.312807D-03
     28  -0.611106D-05 -0.677592D-01  0.345305D+00 -0.546268D+00 -0.291367D-03
                16            17            18            19            20 
      1   0.141161D+02 -0.155400D+00 -0.162433D+00 -0.149338D-02 -0.258213D+00
      2  -0.639019D+00 -0.311337D-02 -0.770947D-01 -0.239133D-02 -0.114817D-01
      3   0.764714D-01  0.213816D+00  0.304206D+00  0.807138D-01  0.381479D+02
      4   0.652143D-01 -0.141487D+00 -0.280718D+00  0.416456D-01  0.158580D+02
      5   0.356757D-01 -0.444838D-01 -0.516797D-01  0.128288D-01  0.135918D+02
      6   0.109980D-01 -0.202227D-04  0.174181D-02 -0.403383D+02  0.977632D-01
      7   0.113091D+00 -0.654378D-03 -0.995975D-03  0.354736D+01  0.101197D-01
      8  -0.205136D-01  0.339012D+00  0.809828D-01 -0.209910D-02 -0.685899D+00
      9   0.243709D-01 -0.160066D+00 -0.100548D+00  0.625274D-03  0.171738D+00
     10   0.164014D-01 -0.632677D-01  0.432631D-01 -0.146386D-02 -0.811983D-01
     11  -0.450199D-01 -0.229071D+00 -0.212845D+00 -0.312188D-02 -0.848588D+00
     12  -0.554218D-02  0.357231D+00 -0.300187D+00  0.236709D-03 -0.216965D+00
     13   0.114846D+00  0.236830D+01  0.221850D+02  0.275264D-02 -0.365298D+00
     14   0.957155D-01  0.200179D+02 -0.272058D+01 -0.841174D-03 -0.251285D+00
     15  -0.141125D+02  0.152273D+00  0.172888D+00  0.571369D-04 -0.422056D+00
     16   0.618982D+00  0.248718D-01  0.755227D-02  0.180169D-02 -0.328816D+00
     17   0.155470D+00 -0.253260D+00 -0.296263D+00 -0.808804D-01 -0.381187D+02
     18   0.150538D-02  0.147905D+00  0.245356D+00 -0.418409D-01 -0.158674D+02
     19   0.395806D-01  0.505715D-01 -0.548707D-01 -0.127798D-01 -0.135859D+02
     20  -0.918229D-02  0.153358D-04 -0.181944D-02  0.405253D+02 -0.978908D-01
     21  -0.113836D+00  0.638944D-03  0.101029D-02 -0.383848D+01 -0.892841D-02
     22   0.150198D-01 -0.334549D+00 -0.771810D-01  0.205914D-02  0.675084D+00
     23   0.149709D-01  0.158119D-02 -0.393812D-01 -0.535202D-03 -0.117882D+00
     24  -0.876292D-02 -0.632526D-01 -0.158109D+00  0.120828D-02  0.481447D-01
     25   0.481087D-02  0.462327D+00  0.435901D+00  0.277772D-02  0.753242D+00
     26   0.137282D-02 -0.447040D-01  0.431357D-01 -0.276076D-03  0.182684D+00
     27  -0.121622D+00 -0.243181D+01 -0.219856D+02 -0.261358D-02  0.375691D+00
     28  -0.944898D-01 -0.198861D+02  0.261642D+01  0.907549D-03  0.254454D+00
                21            22            23            24            25 
      1   0.963591D-03 -0.220916D+00  0.185564D+00  0.925261D+01 -0.146908D+01
      2   0.399018D-02 -0.765441D+00  0.123016D+01  0.206977D+03 -0.394642D+02
      3  -0.133427D+02 -0.251906D+02  0.291041D+01  0.216528D-01  0.547043D+01
      4  -0.147551D+02  0.535599D+02 -0.366977D+01  0.218905D+01 -0.200719D+01
      5   0.546313D+02  0.834556D+01  0.437768D+00  0.815904D+00  0.250649D+01
      6  -0.248767D-01  0.814726D-02 -0.255915D-02 -0.143415D-01 -0.684349D-02
      7  -0.276768D-02  0.610321D-02 -0.184574D-02 -0.138998D-01 -0.822337D-02
      8  -0.454752D+00  0.316629D+01  0.845097D+02 -0.312372D+01 -0.886014D+00
      9   0.701380D-01 -0.533825D+00 -0.348979D+01 -0.347794D+01 -0.218175D+01
     10   0.332931D+00 -0.144971D+01  0.548606D+00 -0.665475D+01  0.904043D+02
     11  -0.986058D-01  0.147444D+01 -0.471364D-01  0.326928D+02  0.223619D+03
     12  -0.812793D+00  0.950213D-01  0.337916D+00  0.114135D+02  0.128902D+03
     13   0.349221D-01  0.108426D+01 -0.506266D+00  0.118211D+01  0.379853D+01
     14   0.177896D+00  0.538188D+00 -0.142456D+01  0.589458D+00  0.202459D+01
     15  -0.124713D-02  0.240464D+00 -0.201893D+00 -0.925710D+01  0.140211D+01
     16  -0.698403D-02  0.881038D+00 -0.129262D+01 -0.206926D+03  0.393389D+02
     17   0.133419D+02  0.250915D+02 -0.284344D+01  0.214788D+01 -0.578227D+01
     18   0.147512D+02 -0.534994D+02  0.365802D+01 -0.133108D+01  0.186990D+01
     19  -0.546237D+02 -0.836090D+01 -0.418474D+00 -0.533388D-01 -0.260256D+01
     20   0.247657D-01 -0.805566D-02  0.254862D-02  0.141265D-01  0.684244D-02
     21   0.249961D-02 -0.587638D-02  0.174238D-02  0.133726D-01  0.772094D-02
     22   0.453659D+00 -0.314131D+01 -0.845065D+02  0.322083D+01  0.157651D+01
     23  -0.689763D-01  0.299344D+00  0.348315D+01  0.337098D+01  0.265698D+01
     24  -0.318119D+00  0.138653D+01 -0.573961D+00  0.664280D+01 -0.904007D+02
     25   0.117952D+00 -0.125553D+01 -0.227197D+00 -0.325167D+02 -0.223616D+03
     26   0.722639D+00 -0.874318D-01 -0.522259D+00 -0.113752D+02 -0.128779D+03
     27   0.601438D-03 -0.102559D+01  0.608382D+00 -0.117501D+01 -0.406538D+01
     28  -0.205016D+00 -0.541148D+00  0.143860D+01 -0.592216D+00 -0.198002D+01
                26            27 
      1  -0.682513D+00  0.598552D+00
      2  -0.245512D+02  0.222820D+02
      3   0.377692D+01 -0.643955D+01
      4  -0.893787D+01  0.562256D+01
      5   0.280550D+01  0.312643D+01
      6   0.107516D-01  0.688319D-02
      7   0.713807D-02  0.515604D-03
      8   0.136318D+01 -0.264817D+01
      9   0.436549D+01 -0.110257D+02
     10  -0.324070D+03  0.126199D+03
     11   0.344534D+02 -0.224845D+03
     12   0.159713D+03  0.308873D+03
     13   0.276152D+01 -0.232155D+01
     14  -0.146191D+01 -0.654670D+01
     15   0.683030D+00 -0.573661D+00
     16   0.243380D+02 -0.220673D+02
     17  -0.386454D+01  0.648279D+01
     18   0.875149D+01 -0.549025D+01
     19  -0.279649D+01 -0.302985D+01
     20  -0.106924D-01 -0.682841D-02
     21  -0.668664D-02 -0.425009D-03
     22  -0.125765D+01  0.262913D+01
     23  -0.411980D+01  0.110898D+02
     24   0.324144D+03 -0.126168D+03
     25  -0.345709D+02  0.224887D+03
     26  -0.159695D+03 -0.308667D+03
     27  -0.291751D+01  0.183863D+01
     28   0.150041D+01  0.668197D+01
 NBasis=    28 RedAO= T EigKep=  3.08D-06  NBF=    28
 NBsUse=    27 1.00D-06 EigRej=  2.68D-07 NBFU=    27
 Precomputing XC quadrature grid using
 IXCGrd= 4 IRadAn=           5 IRanWt=          -1 IRanGd=           0 AccXCQ= 0.00D+00.
 SetAtRh:  ITypeU=  23 NETotI=       0 ICharg=  4 NETot=       0.
 StAtR1:  I=    1 I1=    1 IA=  6 C=   6.0 OKShel=TTT
                                                  SSP
                                                  222
 StAtR1:  I=    2 I1=    2 IA=  1 C=   1.0 OKShel=T
                                                  S
                                                  1
 StAtR1:  I=    3 I1=    3 IA=  1 C=   1.0 OKShel=T
                                                  S
                                                  1
 StAtR1:  I=    4 I1=    4 IA=  6 C=   6.0 OKShel=TTT
                                                  SSP
                                                  222
 StAtR1:  I=    5 I1=    5 IA=  1 C=   1.0 OKShel=T
                                                  S
                                                  1
 StAtR1:  I=    6 I1=    6 IA=  1 C=   1.0 OKShel=T
                                                  S
                                                  1
 StAtR1:  I=    7 I1=    7 IA=  6 C=   6.0 OKShel=TTT
                                                  SSP
                                                  222
 StAtR1:  I=    8 I1=    8 IA=  1 C=   1.0 OKShel=T
                                                  S
                                                  1
 StAtR1:  I=    9 I1=    9 IA=  1 C=   1.0 OKShel=T
                                                  S
                                                  1
 StAtR1:  I=   10 I1=   10 IA=  6 C=   6.0 OKShel=TTT
                                                  SSP
                                                  222
 StAtR1:  I=   11 I1=   11 IA=  1 C=   1.0 OKShel=T
                                                  S
                                                  1
 StAtR1:  I=   12 I1=   12 IA=  1 C=   1.0 OKShel=T
                                                  S
                                                  1
          I=    1 IA=  6 I1=    1 NAtG= 0 NE=   6.000 C=   0.000 Err=-6.00D+00
          I=    2 IA=  1 I1=    2 NAtG= 0 NE=   1.000 C=   0.000 Err=-1.00D+00
          I=    3 IA=  1 I1=    3 NAtG= 0 NE=   1.000 C=   0.000 Err=-1.00D+00
          I=    4 IA=  6 I1=    4 NAtG= 0 NE=   6.000 C=   0.000 Err=-6.00D+00
          I=    5 IA=  1 I1=    5 NAtG= 0 NE=   1.000 C=   0.000 Err=-1.00D+00
          I=    6 IA=  1 I1=    6 NAtG= 0 NE=   1.000 C=   0.000 Err=-1.00D+00
          I=    7 IA=  6 I1=    7 NAtG= 0 NE=   6.000 C=   0.000 Err=-6.00D+00
          I=    8 IA=  1 I1=    8 NAtG= 0 NE=   1.000 C=   0.000 Err=-1.00D+00
          I=    9 IA=  1 I1=    9 NAtG= 0 NE=   1.000 C=   0.000 Err=-1.00D+00
          I=   10 IA=  6 I1=   10 NAtG= 0 NE=   6.000 C=   0.000 Err=-6.00D+00
          I=   11 IA=  1 I1=   11 NAtG= 0 NE=   1.000 C=   0.000 Err=-1.00D+00
          I=   12 IA=  1 I1=   12 NAtG= 0 NE=   1.000 C=   0.000 Err=-1.00D+00
 Generated NRdTot=       0 NPtTot=           0 NUsed=           0 NTot=          32
 NSgBfM=    28    28    28    28    28 MxSgAt=    12 MxSgA2=    12.
 IGWInf( 1) =          32 (NGWInf)
 IGWInf( 2) =          12 (NAtomA)
 IGWInf( 3) =           5 (IRadAn)
 IGWInf( 4) =          -1 (IRanWt)
 IGWInf( 5) =           0 (IRanGd)
 IGWInf( 6) =           2 (IRType)
 IGWInf( 7) =           0 (NRdTot)
 IGWInf( 8) =           0 (NGWTot)
 IGWInf( 9) =      265688 (LGWBtD)
 IGWInf(10) =           0 (NAtBtD)
 IGWInf(11) =           0 (NIRBtD)
 IGWInf(12) =           0 (NRRBtD)
 IGWInf(13) =           1 (NClRep)
 IGWInf(14) =           0 (ICntr3)
 IGWInf(15) =           0 (IPFlag)
 IGWInf(16) =           0 (IGet)  
 IGWInf(17) =           0         
 IGWInf(18) =          28         
 IGWInf(19) =          28         
 IGWInf(20) =          28         
 IGWInf(21) =          28         
 IGWInf(22) =          28         
 IGWInf(23) =          12         
 IGWInf(24) =          12         
 IGWInf(25) =           0         
 IGWInf(26) =           0         
 IGWInf(27) =           0         
 IGWInf(28) =           0         
 IGWInf(29) =           0         
 IGWInf(30) =           0         
 IGWInf(31) =           0         
 IGWInf(32) =           0         
 IAtBtD: 
              1            2            3            4            5
              6            7            8            9           10
             11           12
 ExpMin= 1.69D-01 ExpMax= 7.16D+01 ExpMxC= 7.16D+01 IAcc=3 IRadAn=         5 AccDes= 0.00D+00
 Harris functional with IExCor= 4639 and IRadAn=       5 diagonalized for initial guess.
 HarFok:  IExCor= 4639 AccDes= 0.00D+00 IRadAn=         5 IDoV= 1 UseB2=F ITyADJ=14
 ICtDFT=  3500011 ScaDFX=  1.000000  1.000000  1.000000  1.000000
 FoFCou: FMM=F IPFlag=           0 FMFlag=      100000 FMFlg1=           0
         NFxFlg=           0 DoJE=T BraDBF=F KetDBF=T FulRan=T
         wScrn=  0.000000 ICntrl=       500 IOpCl=  0 I1Cent=   200000004 NGrid=           0
         NMat0=    1 NMatS0=      1 NMatT0=    0 NMatD0=    1 NMtDS0=    0 NMtDT0=    0
 Symmetry not used in FoFCou.

 **********************************************************************

            Population analysis using the SCF Density.

 **********************************************************************

 Alpha  occ. eigenvalues --  -34.73664 -34.26815  -3.09622  -2.43314  -2.15378
 Alpha  occ. eigenvalues --   -1.69354  -1.57311  -1.32084  -1.24494  -1.16646
 Alpha  occ. eigenvalues --   -0.82999  -0.75811  -0.70019  -0.52872   0.17309
 Alpha  occ. eigenvalues --    0.35113
 Alpha virt. eigenvalues --    0.56873   0.61086   0.61485   0.84382   1.01382
 Alpha virt. eigenvalues --    1.18127   1.64956   1.87203   1.88558  14.87466
 Alpha virt. eigenvalues --   26.57596
     Molecular Orbital Coefficients:
                           1         2         3         4         5
                           O         O         O         O         O
     Eigenvalues --   -34.73664 -34.26815  -3.09622  -2.43314  -2.15378
   1 1   C  1S          0.16879  -0.53906  -2.37388   0.00712   0.20182
   2        2S          1.48627   0.47195 112.11026   1.21553  -3.86877
   3        2PX        -2.27026   6.28826   0.70496  -3.19737 -15.95845
   4        2PY        -0.64105   2.50299   0.28510  -1.49992  -7.65035
   5        2PZ        -1.06280   2.12516   0.24081  -1.54364  -5.86087
   6 2   H  1S          0.00056   0.00176  -0.00121   0.00076  -0.00127
   7 3   H  1S          0.00073   0.00205  -0.00111   0.00089  -0.00142
   8 4   C  1S         -0.51918  -0.07825   0.20776   0.05639  -0.04965
   9        2S          0.41686   0.08559  -2.03576   1.58950  -0.01787
  10        2PX        -7.87808   0.22869   1.25104 -27.43343  -2.03039
  11        2PY       -40.62951  -6.90767  -1.80310 -95.76236  10.56746
  12        2PZ       -23.69507  -5.62974  -0.01188 -56.78901   6.66645
  13 5   H  1S         -0.74568  -0.31394   0.02404  -0.90234   0.56327
  14 6   H  1S         -0.41648  -0.07290  -0.00233  -0.67347   0.10285
  15 7   C  1S          0.12472  -0.54920   2.37573   0.06143   0.14369
  16        2S         -1.50800  -0.40660-112.10655  -1.43631   3.06539
  17        2PX         2.28611  -6.28902   0.96197   3.27734  16.00346
  18        2PY         0.62331  -2.49710   0.33479   1.37193   7.50449
  19        2PZ         1.06057  -2.12388   0.33485   1.53868   5.83053
  20 8   H  1S         -0.00056  -0.00174   0.00119  -0.00076   0.00125
  21 9   H  1S         -0.00068  -0.00196   0.00104  -0.00079   0.00128
  22 10  C  1S         -0.58380  -0.19774  -0.20916  -0.41442   0.08695
  23        2S         -0.31910  -0.07170   2.01552  -0.64733  -0.00046
  24        2PX         7.89851  -0.24852  -1.24907  27.59396   2.14090
  25        2PY        40.63209   6.90982   1.83211  95.81113 -10.63425
  26        2PZ        23.67449   5.62161   0.01945  56.69158  -6.64563
  27 11  H  1S          0.74719   0.31008  -0.02126   0.85015  -0.52525
  28 12  H  1S          0.35801   0.05892   0.00117   0.47036  -0.07200
                           6         7         8         9        10
                           O         O         O         O         O
     Eigenvalues --    -1.69354  -1.57311  -1.32084  -1.24494  -1.16646
   1 1   C  1S          0.04133  -0.03962  -0.01359   0.00567   0.00129
   2        2S          3.97088  -2.29870   0.46694  -3.92571  -0.25847
   3        2PX        -1.55232   0.99834  -0.29138   3.25379  -0.17876
   4        2PY         2.12574  -1.37725  -0.33617  -1.58011  -0.36154
   5        2PZ        -0.53664  -0.89252   0.32138   0.40831   0.96421
   6 2   H  1S          0.00108  -0.00085   0.00060  -0.00014  -0.00035
   7 3   H  1S          0.00116  -0.00059   0.00060  -0.00016  -0.00020
   8 4   C  1S         10.80890  -3.20045   1.55161  -0.18281  -0.04992
   9        2S         -1.46057  -0.05959  -0.09181   0.33657  -0.04447
  10        2PX        17.23659  -7.68820   1.92846  -4.97694  -2.70293
  11        2PY        -4.18447  -9.44525  13.45988   0.14189  -1.31437
  12        2PZ        26.27966  19.38366   3.36287  -2.25856   5.31227
  13 5   H  1S          0.26664  -1.17064  -0.16681   0.20944  -0.32337
  14 6   H  1S          1.30745  -0.32148  -0.33318   0.01948   0.08881
  15 7   C  1S         -0.03862   0.04516   0.01934  -0.04424  -0.00149
  16        2S         -3.85430   2.14182  -0.57189   3.93927   0.26021
  17        2PX         1.49466  -0.89550   0.34114  -2.84961  -0.05321
  18        2PY        -2.05419   1.29380   0.19255   0.61497   0.10715
  19        2PZ         0.49144   0.82938  -0.25348  -0.57479  -0.02145
  20 8   H  1S         -0.00108   0.00085  -0.00061   0.00014   0.00036
  21 9   H  1S         -0.00100   0.00050  -0.00050   0.00016   0.00019
  22 10  C  1S        -10.78843   3.19072  -1.51706   0.17230   0.05071
  23        2S          1.50195   0.16462   0.07994  -0.16868   0.06641
  24        2PX       -17.17346   7.94047  -0.91372   5.07206   2.67729
  25        2PY         4.85695   8.59833 -13.41593  -0.22608   1.31025
  26        2PZ       -25.42807 -18.66128  -3.56439   2.28029  -5.30781
  27 11  H  1S         -0.48185   1.07066   0.16190  -0.18255   0.28380
  28 12  H  1S         -1.25882   0.46445   0.32355  -0.01353  -0.07762
                          11        12        13        14        15
                           O         O         O         O         O
     Eigenvalues --    -0.82999  -0.75811  -0.70019  -0.52872   0.17309
   1 1   C  1S         -0.00008  -0.00427   0.01283   0.00012  -0.77517
   2        2S          0.01369   0.70471  -0.14115  -0.01669  78.05313
   3        2PX        -0.00349  -0.08284  -0.04712   0.00383 -10.24086
   4        2PY        -0.00199   0.23188   0.07151   0.00196   1.97947
   5        2PZ        -0.00034  -0.17067   0.13689   0.00233  -2.60594
   6 2   H  1S         -0.24792  -0.00053  -0.00023   0.14401   0.02883
   7 3   H  1S          0.11950  -0.00003  -0.00007  -0.38120   0.01715
   8 4   C  1S          0.00083   2.05590  -0.56771  -0.00164   1.30273
   9        2S         -0.00079   0.72265  -0.00301   0.00097  -0.43656
  10        2PX         0.01707  -6.17610  -0.41082  -0.02773 -24.19221
  11        2PY         0.02726 -22.41590 -12.85647  -0.02704 125.46430
  12        2PZ         0.01170 -27.64652   3.02039  -0.01332  24.03788
  13 5   H  1S          0.00051  -1.27226   0.73298   0.00010  -1.02054
  14 6   H  1S          0.00035  -0.46959  -1.09752  -0.00006  -0.56489
  15 7   C  1S          0.00013   0.00289  -0.01358  -0.00016   0.87035
  16        2S         -0.01367  -0.67646   0.15321   0.01659 -77.90414
  17        2PX         0.00353   0.07511   0.03451  -0.00388  10.55256
  18        2PY         0.00210  -0.22788  -0.07086  -0.00199  -1.89166
  19        2PZ         0.00027   0.19366  -0.13742  -0.00238   2.72688
  20 8   H  1S          0.83456   0.00082   0.00035   0.84070  -0.02847
  21 9   H  1S          0.45099   0.00025   0.00010  -0.61328  -0.01821
  22 10  C  1S         -0.00076  -2.14237   0.54036   0.00158  -1.11929
  23        2S          0.00063  -0.22417   0.24188  -0.00117   0.84000
  24        2PX        -0.01697   6.24029   0.38768   0.02764  24.20058
  25        2PY        -0.02721  22.59474  13.15655   0.02689-125.33198
  26        2PZ        -0.01173  27.80364  -3.63141   0.01333 -24.02534
  27 11  H  1S         -0.00026   0.23377  -0.07829   0.00002   0.88345
  28 12  H  1S         -0.00009  -0.15019  -0.12629   0.00028   0.42272
                          16        17        18        19        20
                           O         V         V         V         V
     Eigenvalues --     0.35113   0.56873   0.61086   0.61485   0.84382
   1 1   C  1S          0.74629  -0.22884   0.17930  -0.05734   0.00423
   2        2S        -60.98498  36.38814 -20.40351   8.20875   0.65441
   3        2PX       -24.69730 -16.70664  -4.57463  10.67453 -17.25860
   4        2PY        -7.40708 -20.56125  26.81624 -11.62287  -3.44442
   5        2PZ        -8.13202  -9.86939 -12.35176 -17.36063  50.65212
   6 2   H  1S          0.01462   0.02402  -0.06082   0.00729   0.03080
   7 3   H  1S          0.00860   0.01391  -0.02744   0.01001   0.00992
   8 4   C  1S          0.15087   0.82187   0.70174   1.52698   1.05198
   9        2S          0.65997   0.53380   2.09519  -8.27752  -2.77578
  10        2PX        38.96540 -96.43417-229.14399 129.69524 -15.87191
  11        2PY        83.63564-141.76577 -19.24508 -77.27912 -43.77911
  12        2PZ        11.55548 -21.63004 137.66036 238.40625 131.35395
  13 5   H  1S         -0.33844   2.28472  -2.19593  -0.00501  -0.60636
  14 6   H  1S         -0.60088   1.83369   1.88575   4.65587   3.55731
  15 7   C  1S         -0.47903   0.47075  -0.18659   0.05231   0.00435
  16        2S         61.49461 -35.82403  20.31989  -8.15956  -0.61681
  17        2PX        24.50087  16.78232   4.52954 -10.69206  17.24148
  18        2PY         7.31605  20.65702 -26.88525  11.64501   3.44925
  19        2PZ         8.06538   9.90230  12.39317  17.40985 -50.61861
  20 8   H  1S         -0.01441  -0.02397   0.06056  -0.00695  -0.03082
  21 9   H  1S         -0.00906  -0.01399   0.02793  -0.01041  -0.00983
  22 10  C  1S         -0.01780  -1.05376  -0.68476  -1.39806  -1.00585
  23        2S         -0.26874  -1.28096  -2.03429   8.68914   2.86752
  24        2PX       -38.96259  96.37440 229.16888-129.70120  15.87472
  25        2PY       -83.62843 141.85949  19.24975  77.30286  43.84699
  26        2PZ       -11.54439  21.62973-137.54754-238.18699-131.29226
  27 11  H  1S          0.18051  -2.07606   2.01293  -0.52756   0.39947
  28 12  H  1S          0.50748  -1.69814  -1.81102  -4.57090  -3.51292
                          21        22        23        24        25
                           V         V         V         V         V
     Eigenvalues --     1.01382   1.18127   1.64956   1.87203   1.88558
   1 1   C  1S          0.20411   0.00369  -0.05688   0.10651   0.00139
   2        2S        -26.37021  -0.35593   7.70332 -12.45884  -0.12617
   3        2PX        22.88164   0.13314  -4.55455   7.58054   0.04818
   4        2PY       -44.51873   0.08280   4.55753  -5.55792   0.00202
   5        2PZ         3.58745  -0.05968  -3.25935  -2.37354   0.01273
   6 2   H  1S         -0.03763  24.48927  -0.01456   0.11058 -32.08742
   7 3   H  1S         -0.01440   9.25407   0.00675  -0.05217  10.92720
   8 4   C  1S         -2.42570  -0.00277  -0.10844   1.84099   0.00738
   9        2S          5.01693   0.03128  -0.83316   6.22425   0.03155
  10        2PX      -187.73724  -1.14576  87.85752 -60.69112  -0.43479
  11        2PY        84.72735   0.07012 -59.47700 169.91800   0.68498
  12        2PZ        33.32569   0.01483 -80.65396-172.89847  -0.74447
  13 5   H  1S         -5.26668  -0.01200 -21.26834   5.55764   0.03405
  14 6   H  1S         -2.73527   0.00354   5.42985  19.32488   0.07407
  15 7   C  1S         -0.26533  -0.00494   0.08322  -0.14253  -0.00184
  16        2S         26.07559   0.35279  -7.49850  12.26708   0.12469
  17        2PX       -22.88434  -0.13414   4.51085  -7.55918  -0.04834
  18        2PY        44.38132  -0.08347  -4.47469   5.49186  -0.00241
  19        2PZ        -3.56961   0.05925   3.31981   2.33843  -0.01296
  20 8   H  1S          0.03746 -24.40535   0.01475  -0.11177  32.35649
  21 9   H  1S          0.01440  -9.15682  -0.00692   0.05312 -11.21345
  22 10  C  1S          2.49978   0.00249  -0.01815  -1.76644  -0.00718
  23        2S         -4.52030  -0.03101   0.61488  -6.23459  -0.03180
  24        2PX       187.86373   1.14638 -87.81906  60.59064   0.43444
  25        2PY       -84.97626  -0.07069  59.36846-169.80139  -0.68449
  26        2PZ       -33.33116  -0.01475  80.86343 172.98604   0.74465
  27 11  H  1S          5.14167   0.01206  21.27314  -5.33259  -0.03285
  28 12  H  1S          2.69629  -0.00350  -5.31738 -19.35412  -0.07425
                          26        27
                           V         V
     Eigenvalues --    14.87466  26.57596
   1 1   C  1S         -0.47263  16.75749
   2        2S          4.59125 142.55996
   3        2PX        -3.08951  -0.43410
   4        2PY         3.32878   1.72988
   5        2PZ        -0.36424   0.24810
   6 2   H  1S          0.00240  -0.00697
   7 3   H  1S          0.00190  -0.00708
   8 4   C  1S        -83.73879  -3.19522
   9        2S          2.72342  -2.71698
  10        2PX        14.58856   8.49999
  11        2PY        -3.84516 -13.50693
  12        2PZ        13.40641  -0.08673
  13 5   H  1S          0.72901  -0.04028
  14 6   H  1S          2.02567  -0.12031
  15 7   C  1S          0.48716 -16.75280
  16        2S         -4.49315-142.51369
  17        2PX         3.04014   2.12087
  18        2PY        -3.28863  -1.07329
  19        2PZ         0.35552   0.33975
  20 8   H  1S         -0.00239   0.00685
  21 9   H  1S         -0.00179   0.00684
  22 10  C  1S         83.74935   3.17808
  23        2S         -2.69599   2.63062
  24        2PX       -14.54804  -8.49894
  25        2PY         4.25564  13.58804
  26        2PZ       -13.11992   0.10682
  27 11  H  1S         -0.90988   0.04818
  28 12  H  1S         -2.04100   0.11935
     Density Matrix:
                           1         2         3         4         5
   1 1   C  1S         14.31341
   2        2S       -745.41599**********
   3        2PX       -38.529661643.878112078.07983
   4        2PY       -21.227461368.17697 594.53310 271.06561
   5        2PZ       -14.24893 675.65400 685.90068 214.51048 235.37849
   6 2   H  1S         -0.01911   2.46187  -1.26230  -0.06939  -0.36886
   7 3   H  1S         -0.01101   1.42691  -0.72538  -0.02696  -0.21094
   8 4   C  1S         -1.82045 336.97500 -73.55505  59.11772 -13.95793
   9        2S         11.27503-612.79557 -30.38244 -23.94728 -13.10245
  10        2PX        87.56960********************-439.77297-391.65097
  11        2PY       -64.589318532.93494**********-612.77756**********
  12        2PZ       -19.163712172.89396-933.11533  41.50722-231.58879
  13 5   H  1S          1.41467-117.84164  23.43580  -1.98285   9.14755
  14 6   H  1S          0.07880  -8.15703  39.01471  13.44712  13.16827
  15 7   C  1S        -12.65882 725.73057  -3.35501   6.44340  -0.14469
  16        2S        745.54796******************************-674.19926
  17        2PX        29.85395********************-592.06810-684.54682
  18        2PY        17.94419**********-591.82824-262.48152-212.32151
  19        2PZ        11.21418-518.50785-684.69801-212.43694-232.38778
  20 8   H  1S          0.01906  -2.45254   1.24899   0.06989   0.36809
  21 9   H  1S          0.01186  -1.50047   0.76197   0.02646   0.22039
  22 10  C  1S          1.67793-329.37412  65.70440 -59.74845  12.70914
  23        2S        -11.19711 625.39284  -1.87547  16.74899   1.61948
  24        2PX       -87.555058117.552321244.01941 436.10331 389.77802
  25        2PY        64.35623**********6332.51002 619.651441755.13771
  26        2PZ        19.13559********** 931.35851 -39.97832 228.88509
  27 11  H  1S         -1.41564 112.81234 -12.98700   2.25434  -5.28150
  28 12  H  1S         -0.02043  -4.68689 -30.69391 -13.15468 -10.98903
                           6         7         8         9        10
   6 2   H  1S          0.16651
   7 3   H  1S         -0.16778   0.31994
   8 4   C  1S          0.10623   0.07809 272.22376
   9        2S         -0.00101   0.00027 -30.67097  20.52232
  10        2PX        -0.25664  -0.13661 359.47100 -88.028426708.55973
  11        2PY         9.47555   5.50561 317.07405-352.904166637.07863
  12        2PZ         1.61738   0.89942 422.19000-328.839814150.61313
  13 5   H  1S         -0.07021  -0.04461   4.54636  -5.49987 123.21543
  14 6   H  1S         -0.04843  -0.02884  27.29090  -7.18139  78.31920
  15 7   C  1S          0.02811   0.01403   2.03906 -10.78642 -81.19607
  16        2S         -2.43615  -1.41052-333.06839 612.390168170.70330
  17        2PX         1.27029   0.72885  73.09638  23.758381211.80675
  18        2PY         0.07096   0.02777 -56.61211  20.01720 452.00661
  19        2PZ         0.37203   0.21249  14.19613  10.51320 378.42930
  20 8   H  1S         -0.17375  -0.44274  -0.10645   0.00246   0.21773
  21 9   H  1S         -0.40159   0.57454  -0.07185  -0.00223   0.22494
  22 10  C  1S         -0.09445  -0.07283-270.27072  28.38891-319.05627
  23        2S          0.03662   0.02223  33.73641 -16.49714  37.41551
  24        2PX         0.25790   0.13800-356.30157  88.29521**********
  25        2PY        -9.46496  -5.49801-296.18522 351.16887**********
  26        2PZ        -1.61613  -0.89818-407.64961 326.19193**********
  27 11  H  1S          0.05793   0.03652 -14.00767   4.39137-119.86403
  28 12  H  1S          0.03801   0.02179 -28.70894   5.44634 -58.80641
                          11        12        13        14        15
  11        2PY      **********
  12        2PZ      ********************
  13 5   H  1S         -8.63323 129.88639  13.43273
  14 6   H  1S        -41.03430 131.58119   4.65549   9.36037
  15 7   C  1S        118.62452  25.71983  -1.30574  -0.61351  13.95741
  16        2S       ******************** 117.09236   7.94038-726.30564
  17        2PX      6363.08701 931.64772 -23.94331 -39.49070  12.01458
  18        2PY       637.44779 -25.03920   2.01690 -13.03502  -3.25900
  19        2PZ      1771.98569 241.22645  -9.98198 -13.20773   3.15547
  20 8   H  1S         -9.38673  -1.62309   0.06956   0.04752  -0.02800
  21 9   H  1S         -5.80045  -0.94574   0.04672   0.03101  -0.01544
  22 10  C  1S        -80.46268-308.15330  -2.30737 -26.03146  -1.85910
  23        2S        299.53160 224.75575   1.45317   3.96576  11.12458
  24        2PX      ********************-124.45388 -79.22328  81.34549
  25        2PY      ********************  10.47026  42.23715-118.40462
  26        2PZ      ********************-132.14327-128.36293 -25.66761
  27 11  H  1S         -8.07321 -88.10750  -9.14870  -5.19634   1.22209
  28 12  H  1S         90.09273 -79.16474  -4.33220  -5.44456   0.47252
                          16        17        18        19        20
  16        2S       **********
  17        2PX      1202.079792070.97296
  18        2PY      1188.03065 590.78423 256.83183
  19        2PZ       517.07177 684.78798 210.83168 231.95523
  20 8   H  1S          2.42706  -1.25697  -0.07140  -0.37138   2.80859
  21 9   H  1S          1.48375  -0.76604  -0.02723  -0.22220  -0.27710
  22 10  C  1S        325.76256 -65.28456  57.37951 -12.91170   0.09477
  23        2S       -624.83984   8.80940 -13.42265   0.97281  -0.03785
  24        2PX      ********************-448.90246-376.53768  -0.21903
  25        2PY      8350.09398**********-643.86546**********   9.37617
  26        2PZ      2136.21123-929.81774  23.55484-238.69926   1.62178
  27 11  H  1S       -112.36355  13.51889  -2.33006   6.00463  -0.05735
  28 12  H  1S          4.71094  31.14544  12.74021  10.97373  -0.03716
                          21        22        23        24        25
  21 9   H  1S          1.15985
  22 10  C  1S          0.06599 271.28511
  23        2S         -0.02084 -32.20544  15.59418
  24        2PX        -0.22585 315.80577 -37.253686729.13950
  25        2PY         5.79340  59.57891-297.420246617.65220**********
  26        2PZ         0.94452 293.75433-222.178774130.55508**********
  27 11  H  1S         -0.03865  11.85130  -1.43248 120.84711   6.08432
  28 12  H  1S         -0.02413  27.82947  -3.97994  59.68373 -92.49378
                          26        27        28
  26        2PZ      **********
  27 11  H  1S         88.73464   8.09194
  28 12  H  1S         77.57872   4.59984   5.48804
    Full Mulliken population analysis:
                           1         2         3         4         5
   1 1   C  1S         14.31341
   2        2S       -185.13330**********
   3        2PX         0.00000   0.000002078.07983
   4        2PY         0.00000   0.00000   0.00000 271.06561
   5        2PZ         0.00000   0.00000   0.00000   0.00000 235.37849
   6 2   H  1S         -0.00000   0.00030   0.00026   0.00001  -0.00001
   7 3   H  1S         -0.00000   0.00033   0.00028   0.00001   0.00001
   8 4   C  1S         -0.00000   6.29903   1.68374   1.34277   0.00520
   9        2S          0.21076-148.32823   6.18484  -4.83708   0.04343
  10        2PX         2.00455********** 103.53522 -91.29699   1.33428
  11        2PY         1.46705********************  48.82074  -5.93103
  12        2PZ        -0.00714   7.20254   3.17895   0.14031 -29.24144
  13 5   H  1S          0.01148 -15.35451  -1.85608  -0.21863   0.80209
  14 6   H  1S          0.00027  -0.57526  -1.83861   1.00289  -0.45253
  15 7   C  1S        -12.62516 180.25462  -0.05249   0.03724  -0.00078
  16        2S        185.17680********** -16.42273  -5.01982  -2.32309
  17        2PX        -0.46706  11.99811**********   0.05182   0.05597
  18        2PY        -0.10371   4.40830   0.05180-262.43398   0.00641
  19        2PZ        -0.06054   1.78662   0.05598   0.00642-232.34665
  20 8   H  1S          0.00000  -0.00029  -0.00025  -0.00001   0.00001
  21 9   H  1S          0.00000  -0.00030  -0.00026  -0.00001  -0.00001
  22 10  C  1S          0.00000  -6.17158  -1.50853  -1.35880  -0.00500
  23        2S         -0.20980 151.59268   0.38253   3.38388  -0.00566
  24        2PX        -2.010211655.69742-103.55633  90.62217  -1.40135
  25        2PY        -1.463591716.467761315.89412 -49.13288   6.25045
  26        2PZ         0.00753  -7.57681  -3.34847  -0.14237  28.94946
  27 11  H  1S         -0.01062  13.88730   0.97515   0.23857  -0.43702
  28 12  H  1S         -0.00007  -0.31430   1.38170  -0.94511   0.34986
                           6         7         8         9        10
   6 2   H  1S          0.16651
   7 3   H  1S         -0.08004   0.31994
   8 4   C  1S          0.00000   0.00000 272.22376
   9        2S         -0.00000   0.00000  -7.61752  20.52232
  10        2PX         0.00003   0.00004   0.00000   0.000006708.55973
  11        2PY        -0.00168  -0.00225   0.00000   0.00000   0.00000
  12        2PZ         0.00003  -0.00005   0.00000   0.00000   0.00000
  13 5   H  1S         -0.00000  -0.00000   0.25511  -2.55943  10.49725
  14 6   H  1S         -0.00000  -0.00000   1.85360  -3.67924   1.12390
  15 7   C  1S          0.00000   0.00000   0.00000  -0.19905  -1.84832
  16        2S         -0.00029  -0.00032  -6.14651 147.094171663.24830
  17        2PX        -0.00025  -0.00027  -1.66394  -4.83631-103.58604
  18        2PY        -0.00001  -0.00001  -1.26323   3.99420  93.31370
  19        2PZ         0.00001  -0.00001  -0.00620  -0.04106  -1.52902
  20 8   H  1S         -0.17370  -0.21331  -0.00000   0.00000  -0.00002
  21 9   H  1S         -0.19646   0.57302  -0.00000  -0.00000  -0.00006
  22 10  C  1S         -0.00000  -0.00000-270.25043   7.05075   0.17677
  23        2S          0.00000   0.00001   8.37887 -16.49711  -0.01322
  24        2PX        -0.00003  -0.00004  -0.19741   0.03121**********
  25        2PY         0.00168   0.00225  -0.72967   0.55190   0.00873
  26        2PZ        -0.00003   0.00005  -0.61633   0.31461   0.00335
  27 11  H  1S          0.00000   0.00000  -0.76601   2.01637  -9.47959
  28 12  H  1S          0.00000   0.00000  -1.91521   2.76583  -0.53174
                          11        12        13        14        15
  11        2PY      **********
  12        2PZ         0.00000**********
  13 5   H  1S         -0.61141  56.85537  13.43273
  14 6   H  1S        -12.20324 -49.49001   0.56278   9.36037
  15 7   C  1S         -2.64695   0.01123  -0.01058  -0.00210  13.95741
  16        2S       1673.44217  -8.36315  15.24170   0.55618-180.38701
  17        2PX      1313.61614  -3.76426   1.91467   1.86399   0.00000
  18        2PY       -49.23431  -0.09917   0.22149  -0.96282   0.00000
  19        2PZ         7.01807  30.16494  -0.87130   0.45243   0.00000
  20 8   H  1S          0.00159  -0.00003   0.00000   0.00000  -0.00000
  21 9   H  1S          0.00212   0.00005   0.00000   0.00000  -0.00000
  22 10  C  1S          0.19823   0.46590  -0.12908  -1.76706  -0.00000
  23        2S         -0.47075  -0.21678   0.67517   2.03121   0.20578
  24        2PX         0.00877   0.00336 -10.59770  -1.14995   1.85719
  25        2PY      **********   0.07797   0.74679  12.58804   2.64527
  26        2PZ         0.07792********** -57.76825  48.20053  -0.01174
  27 11  H  1S         -0.66562 -38.12325  -9.13802  -0.62929   0.00916
  28 12  H  1S         27.82830  28.78524  -0.53001  -5.43683   0.00150
                          16        17        18        19        20
  16        2S       **********
  17        2PX         0.000002070.97296
  18        2PY         0.00000   0.00000 256.83183
  19        2PZ         0.00000   0.00000   0.00000 231.95523
  20 8   H  1S          0.00028   0.00024   0.00001  -0.00001   2.80859
  21 9   H  1S          0.00029   0.00025   0.00001   0.00001  -0.13698
  22 10  C  1S          6.02583   1.49051   1.28191   0.00590   0.00000
  23        2S       -150.29580  -1.79674  -2.67889  -0.00397  -0.00000
  24        2PX      ********** 103.56018 -92.75897   1.59270   0.00002
  25        2PY      ********************  49.48560  -7.33628  -0.00160
  26        2PZ         8.72735   3.93300   0.09750 -29.89909   0.00003
  27 11  H  1S        -13.81879  -1.02485  -0.24562   0.49464  -0.00000
  28 12  H  1S          0.31380  -1.40428   0.90667  -0.34833  -0.00000
                          21        22        23        24        25
  21 9   H  1S          1.15985
  22 10  C  1S          0.00000 271.28511
  23        2S         -0.00000  -7.99862  15.59418
  24        2PX         0.00006   0.00000   0.000006729.13950
  25        2PY        -0.00213   0.00000   0.00000   0.00000**********
  26        2PZ        -0.00005   0.00000   0.00000   0.00000   0.00000
  27 11  H  1S         -0.00000   0.64604  -0.65665   9.55303   0.50444
  28 12  H  1S         -0.00000   1.85520  -2.02042   0.54947 -28.62493
                          26        27        28
  26        2PZ      **********
  27 11  H  1S         38.34173   8.09194
  28 12  H  1S        -28.15863   0.56441   5.48804
     Gross orbital populations:
                           1
   1 1   C  1S          1.10064
   2        2S        -17.10151
   3        2PX        -3.54311
   4        2PY         1.32675
   5        2PZ         1.03109
   6 2   H  1S         -0.28365
   7 3   H  1S          0.59966
   8 4   C  1S          0.86964
   9        2S          2.18536
  10        2PX         5.52029
  11        2PY       -18.81828
  12        2PZ        69.91140
  13 5   H  1S          1.57163
  14 6   H  1S          1.40928
  15 7   C  1S          1.19522
  16        2S         20.36706
  17        2PX         6.63352
  18        2PY         0.81873
  19        2PZ         1.09050
  20 8   H  1S          2.28459
  21 9   H  1S          1.39941
  22 10  C  1S          1.29306
  23        2S         -0.62012
  24        2PX        -3.43309
  25        2PY        21.94560
  26        2PZ       -67.64125
  27 11  H  1S          0.32743
  28 12  H  1S          0.56017
          Condensed to atoms (all electrons):
               1          2          3          4          5          6
     1  C ***********   0.000567   0.000633*********** -16.615656  -1.863230
     2  H    0.000567   0.166514  -0.080036  -0.001617  -0.000005  -0.000001
     3  H    0.000633  -0.080036   0.319938  -0.002260  -0.000004  -0.000002
     4  C ***********  -0.001617  -0.002260***********  64.436892 -62.394988
     5  H  -16.615656  -0.000005  -0.000004  64.436892  13.432732   0.562775
     6  H   -1.863230  -0.000001  -0.000002 -62.394988   0.562775   9.360370
     7  C ***********  -0.000547  -0.0006094746.675372  16.495986   1.907695
     8  H   -0.000540  -0.173696  -0.213305   0.001541   0.000005   0.000001
     9  H   -0.000579  -0.196455   0.573025   0.002111   0.000004   0.000002
    10  C 4791.356589   0.001626   0.002273*********** -67.073070  59.902776
    11  H   14.653370   0.000004   0.000003 -47.018110  -9.138022  -0.629292
    12  H    0.472081   0.000001   0.000002  56.932414  -0.530005  -5.436827
               7          8          9         10         11         12
     1  C ***********  -0.000540  -0.0005794791.356589  14.653370   0.472081
     2  H   -0.000547  -0.173696  -0.196455   0.001626   0.000004   0.000001
     3  H   -0.000609  -0.213305   0.573025   0.002273   0.000003   0.000002
     4  C 4746.675372   0.001541   0.002111*********** -47.018110  56.932414
     5  H   16.495986   0.000005   0.000004 -67.073070  -9.138022  -0.530005
     6  H    1.907695   0.000001   0.000002  59.902776  -0.629292  -5.436827
     7  C ***********   0.000521   0.000557*********** -14.585455  -0.530632
     8  H    0.000521   2.808589  -0.136976  -0.001549  -0.000004  -0.000001
     9  H    0.000557  -0.136976   1.159854  -0.002123  -0.000003  -0.000002
    10  C ***********  -0.001549  -0.002123***********  48.388584 -56.399314
    11  H  -14.585455  -0.000004  -0.000003  48.388584   8.091936   0.564414
    12  H   -0.530632  -0.000001  -0.000002 -56.399314   0.564414   5.488038
 Mulliken charges:
               1
     1  C   23.186147
     2  H    1.283646
     3  H    0.400343
     4  C  -53.668411
     5  H   -0.571632
     6  H   -0.409280
     7  C  -24.105032
     8  H   -1.284586
     9  H   -0.399415
    10  C   54.455811
    11  H    0.672575
    12  H    0.439833
 Sum of Mulliken charges =  -0.00000
 Mulliken charges with hydrogens summed into heavy atoms:
               1
     1  C   23.185208
     4  C  -53.536915
     7  C  -24.105032
    10  C   54.456739
 N-N= 1.132783880289D+04 E-N=-7.465245304678D+02  KE= 1.411286448060D+02
 Orbital energies and kinetic energies (alpha):
                                 1                 2
   1         O               -34.736635         19.000551
   2         O               -34.268150         18.484036
   3         O                -3.096222          7.910468
   4         O                -2.433144          2.567723
   5         O                -2.153776          2.247301
   6         O                -1.693544          3.028325
   7         O                -1.573113          1.940502
   8         O                -1.320838          1.630558
   9         O                -1.244936          1.664224
  10         O                -1.166463          1.490844
  11         O                -0.829988          0.581935
  12         O                -0.758105          1.282604
  13         O                -0.700190          1.544186
  14         O                -0.528717          1.276456
  15         O                 0.173088          2.805787
  16         O                 0.351130          3.108823
  17         V                 0.568725          3.678588
  18         V                 0.610863          3.114427
  19         V                 0.614849          3.309365
  20         V                 0.843820          3.477329
  21         V                 1.013824          4.071352
  22         V                 1.181273          2.393516
  23         V                 1.649559          3.620574
  24         V                 1.872032          4.278053
  25         V                 1.885578          3.337994
  26         V                14.874656         57.565094
  27         V                26.575964         74.830712
 Total kinetic energy from orbitals= 1.411286448059D+02

 This type of calculation cannot be archived.


 THE TEST OF A FIRST RATE INTELLIGENCE IS THE ABILITY TO HOLD TWO OPPOSED
 IDEAS IN THE MIND AT THE SAME TIME, AND STILL RETAIN THE ABILITY TO FUNCTION.
 ONE SHOULD, FOR EXAMPLE, BE ABLE TO SEE THAT THINGS ARE HOPELESS AND YET BE
 DETERMINED TO MAKE THEM OTHERWISE.

                                                       -- F. SCOTT FITZGERALD
 Job cpu time:       0 days  0 hours  0 minutes  2.0 seconds.
 Elapsed time:       0 days  0 hours  0 minutes  4.1 seconds.
 File lengths (MBytes):  RWF=    272 Int=      0 D2E=      0 Chk=     32 Scr=     32
 Normal termination of Gaussian 16 at Sat Jan  7 16:49:06 2023.
