 Entering Gaussian System, Link 0=g16
 Initial command:
 /software/gaussian/g16-c01/avx2/g16/l1.exe "/gpfs/fs2/scratch/bweight/software/many_molecule_many_mode_NAMD/src/WFN_OVERLAP/TEST/TD_NEW_S1/Gau-58772.inp" -scrdir="/gpfs/fs2/scratch/bweight/software/many_molecule_many_mode_NAMD/src/WFN_OVERLAP/TEST/TD_NEW_S1/"
 Entering Link 1 = /software/gaussian/g16-c01/avx2/g16/l1.exe PID=     58943.
  
 Copyright (c) 1988-2019, Gaussian, Inc.  All Rights Reserved.
  
 This is part of the Gaussian(R) 16 program.  It is based on
 the Gaussian(R) 09 system (copyright 2009, Gaussian, Inc.),
 the Gaussian(R) 03 system (copyright 2003, Gaussian, Inc.),
 the Gaussian(R) 98 system (copyright 1998, Gaussian, Inc.),
 the Gaussian(R) 94 system (copyright 1995, Gaussian, Inc.),
 the Gaussian 92(TM) system (copyright 1992, Gaussian, Inc.),
 the Gaussian 90(TM) system (copyright 1990, Gaussian, Inc.),
 the Gaussian 88(TM) system (copyright 1988, Gaussian, Inc.),
 the Gaussian 86(TM) system (copyright 1986, Carnegie Mellon
 University), and the Gaussian 82(TM) system (copyright 1983,
 Carnegie Mellon University). Gaussian is a federally registered
 trademark of Gaussian, Inc.
  
 This software contains proprietary and confidential information,
 including trade secrets, belonging to Gaussian, Inc.
  
 This software is provided under written license and may be
 used, copied, transmitted, or stored only in accord with that
 written license.
  
 The following legend is applicable only to US Government
 contracts under FAR:
  
                    RESTRICTED RIGHTS LEGEND
  
 Use, reproduction and disclosure by the US Government is
 subject to restrictions as set forth in subparagraphs (a)
 and (c) of the Commercial Computer Software - Restricted
 Rights clause in FAR 52.227-19.
  
 Gaussian, Inc.
 340 Quinnipiac St., Bldg. 40, Wallingford CT 06492
  
  
 ---------------------------------------------------------------
 Warning -- This program may not be used in any manner that
 competes with the business of Gaussian, Inc. or will provide
 assistance to any competitor of Gaussian, Inc.  The licensee
 of this program is prohibited from giving any competitor of
 Gaussian, Inc. access to this program.  By using this program,
 the user acknowledges that Gaussian, Inc. is engaged in the
 business of creating and licensing software in the field of
 computational chemistry and represents and warrants to the
 licensee that it is not a competitor of Gaussian, Inc. and that
 it will not use this program in any manner prohibited above.
 ---------------------------------------------------------------
  

 Cite this work as:
 Gaussian 16, Revision C.01,
 M. J. Frisch, G. W. Trucks, H. B. Schlegel, G. E. Scuseria, 
 M. A. Robb, J. R. Cheeseman, G. Scalmani, V. Barone, 
 G. A. Petersson, H. Nakatsuji, X. Li, M. Caricato, A. V. Marenich, 
 J. Bloino, B. G. Janesko, R. Gomperts, B. Mennucci, H. P. Hratchian, 
 J. V. Ortiz, A. F. Izmaylov, J. L. Sonnenberg, D. Williams-Young, 
 F. Ding, F. Lipparini, F. Egidi, J. Goings, B. Peng, A. Petrone, 
 T. Henderson, D. Ranasinghe, V. G. Zakrzewski, J. Gao, N. Rega, 
 G. Zheng, W. Liang, M. Hada, M. Ehara, K. Toyota, R. Fukuda, 
 J. Hasegawa, M. Ishida, T. Nakajima, Y. Honda, O. Kitao, H. Nakai, 
 T. Vreven, K. Throssell, J. A. Montgomery, Jr., J. E. Peralta, 
 F. Ogliaro, M. J. Bearpark, J. J. Heyd, E. N. Brothers, K. N. Kudin, 
 V. N. Staroverov, T. A. Keith, R. Kobayashi, J. Normand, 
 K. Raghavachari, A. P. Rendell, J. C. Burant, S. S. Iyengar, 
 J. Tomasi, M. Cossi, J. M. Millam, M. Klene, C. Adamo, R. Cammi, 
 J. W. Ochterski, R. L. Martin, K. Morokuma, O. Farkas, 
 J. B. Foresman, and D. J. Fox, Gaussian, Inc., Wallingford CT, 2019.
 
 ******************************************
 Gaussian 16:  ES64L-G16RevC.01  3-Jul-2019
                 7-Jan-2023 
 ******************************************
 %oldchk=../GS_NEW/geometry.chk
 %chk=geometry.chk
 %rwf=geometry.rwf
 %nprocshared=1
 Will use up to    1 processors via shared memory.
 %mem=5GB
 Copying data from "../GS_NEW/geometry.chk" to current chk file "geometry.chk"
 IOpt=  2 FromEx=T IUOpen= 4 IOptOp= 5 NList=   0 IFRang= 0 IUIn= 4 IUOut= 2.
 ----------------------------------------------------------------------
 # WB97XD/STO-3G SCF=XQC TD=(singlets,nstates=2,root=1) FORCE nosym pop
 =full guess=read
 ----------------------------------------------------------------------
 1/10=7,30=1,38=1/1,3;
 2/12=2,15=1,17=6,18=5,40=1/2;
 3/6=3,11=9,25=1,30=1,71=1,74=-58,116=-2/1,2,3,8;
 4/5=1/1;
 5/5=2,8=3,13=1,38=6/2,8;
 8/6=1,10=1,107=1,108=2/1;
 9/8=1,15=2,41=2,42=1,48=1,70=2/14;
 10/5=4,28=1,31=1/2;
 6/7=3,18=1/1;
 7/12=6,13=5,14=1,29=1,30=1/1,2,3,16;
 1/10=7,30=1/3;
 99//99;
 ------------
 MD Step 1000
 ------------
 Symbolic Z-matrix:
 Charge =  0 Multiplicity = 1
 C                     2.74013   1.87526   2.08311 
 H                    -1.06508  -1.03156   2.48749 
 H                    -1.09273  -0.6899    1.54417 
 C                     1.53905   3.05057   2.05906 
 H                     1.7419    3.26332   3.16785 
 H                     1.55952   3.73872   1.25196 
 

 GradGradGradGradGradGradGradGradGradGradGradGradGradGradGradGradGradGrad
 Berny optimization.
 Initialization pass.
 Trust Radius=3.00D-01 FncErr=1.00D-07 GrdErr=1.00D-07 EigMax=2.50D+02 EigMin=1.00D-04
 Number of steps in this run=      2 maximum allowed number of steps=      2.
 GradGradGradGradGradGradGradGradGradGradGradGradGradGradGradGradGradGrad

                          Input orientation:                          
 ---------------------------------------------------------------------
 Center     Atomic      Atomic             Coordinates (Angstroms)
 Number     Number       Type             X           Y           Z
 ---------------------------------------------------------------------
      1          6           0        2.740135    1.875258    2.083115
      2          1           0       -1.065076   -1.031556    2.487493
      3          1           0       -1.092727   -0.689900    1.544174
      4          6           0        1.539049    3.050566    2.059056
      5          1           0        1.741899    3.263317    3.167845
      6          1           0        1.559520    3.738724    1.251960
 ---------------------------------------------------------------------
                    Distance matrix (angstroms):
                    1          2          3          4          5
     1  C    0.000000
     2  H    4.805488   0.000000
     3  H    4.643417   1.003666   0.000000
     4  C    1.680636   4.860941   4.602438   0.000000
     5  H    2.024802   5.175705   5.128288   1.147094   0.000000
     6  H    2.357367   5.583066   5.170350   1.060842   1.982396
                    6
     6  H    0.000000
 Symmetry turned off by external request.
 Stoichiometry    C2H4
 Framework group  C1[X(C2H4)]
 Deg. of freedom    12
 Full point group                 C1      NOp   1
 Rotational constants (GHZ):          23.5612424          11.6434364           8.3943626
 Standard basis: STO-3G (5D, 7F)
    14 basis functions,    42 primitive gaussians,    14 cartesian basis functions
     8 alpha electrons        8 beta electrons
       nuclear repulsion energy        23.8953433543 Hartrees.
 NAtoms=    6 NActive=    6 NUniq=    6 SFac= 1.00D+00 NAtFMM=   60 NAOKFM=F Big=F
 Integral buffers will be    131072 words long.
 Raffenetti 1 integral format.
 Two-electron integral symmetry is turned off.
 Nuclear repulsion after empirical dispersion term =       23.8949922570 Hartrees.
 One-electron integrals computed using PRISM.
 NBasis=    14 RedAO= T EigKep=  2.77D-01  NBF=    14
 NBsUse=    14 1.00D-06 EigRej= -1.00D+00 NBFU=    14
 Initial guess from the checkpoint file:  "geometry.chk"
 B after Tr=     0.000000    0.000000    0.000000
         Rot=    1.000000    0.000000    0.000000    0.000000 Ang=   0.00 deg.
 Keep R1 ints in memory in canonical form, NReq=876001.
 Requested convergence on RMS density matrix=1.00D-08 within  32 cycles.
 Requested convergence on MAX density matrix=1.00D-06.
 Requested convergence on             energy=1.00D-06.
 No special actions if energy rises.
 SCF Done:  E(RwB97XD) =  -77.2709608249     A.U. after    1 cycles
            NFock=  1  Conv=0.52D-09     -V/T= 2.0046
 QCSCF skips out because SCF is already converged.
 DoSCS=F DFT=T ScalE2(SS,OS)=  1.000000  1.000000
 ExpMin= 1.69D-01 ExpMax= 7.16D+01 ExpMxC= 7.16D+01 IAcc=3 IRadAn=         5 AccDes= 0.00D+00
 HarFok:  IExCor=  205 AccDes= 0.00D+00 IRadAn=         5 IDoV=-2 UseB2=F ITyADJ=14
 ICtDFT= 12500011 ScaDFX=  1.000000  1.000000  1.000000  1.000000
 Range of M.O.s used for correlation:     3    14
 NBasis=    14 NAE=     8 NBE=     8 NFC=     2 NFV=     0
 NROrb=     12 NOA=     6 NOB=     6 NVA=     6 NVB=     6
 Keep R1, R2, and R3 ints in memory in canonical form, NReq=915104.
     8 initial guesses have been made.
 Convergence on wavefunction:    0.000001000000000
 Iteration     1 Dimension     8 NMult     0 NNew      8
 CISAX will form     8 AO SS matrices at one time.
 New state      2 was old state      3
 Iteration     2 Dimension    12 NMult     8 NNew      4
 Iteration     3 Dimension    16 NMult    12 NNew      4
 Iteration     4 Dimension    20 NMult    16 NNew      4
 Iteration     5 Dimension    24 NMult    20 NNew      4
 Iteration     6 Dimension    28 NMult    24 NNew      4
 Iteration     7 Dimension    31 NMult    28 NNew      3
 ***********************************************************************
 Excited states from <AA,BB:AA,BB> singles matrix:
 ***********************************************************************
 
 Ground to excited state transition densities written to RWF  633
 Ground to excited state transition electric dipole moments (Au):
       state          X           Y           Z        Dip. S.      Osc.
         1         0.0241     -0.0143      0.0546      0.0038      0.0002
         2         0.0507      0.0165     -0.1634      0.0295      0.0026
 Ground to excited state transition velocity dipole moments (Au):
       state          X           Y           Z        Dip. S.      Osc.
         1         0.0076      0.0056     -0.0321      0.0011      0.0101
         2        -0.0249      0.0121      0.1192      0.0150      0.0755
 Ground to excited state transition magnetic dipole moments (Au):
       state          X           Y           Z
         1         0.8150      0.0899      0.0437
         2        -0.3474     -1.7280     -0.0404
 Ground to excited state transition velocity quadrupole moments (Au):
       state          XX          YY          ZZ          XY          XZ          YZ
         1         0.0703      0.0640     -0.2516      0.0482     -0.1428     -0.0861
         2        -0.2275      0.1334      0.9452     -0.0636      0.5076      0.4785
 <0|del|b> * <b|rxdel|0> + <0|del|b> * <b|delr+rdel|0>
 Rotatory Strengths (R) in cgs (10**-40 erg-esu-cm/Gauss)
       state          XX          YY          ZZ    R(velocity)    E-M Angle
         1        -7.8171     27.0156     31.1088     16.7691       78.95
         2      -105.4616     -1.3415     15.5297    -30.4244       94.54
 1/2[<0|r|b>*<b|rxdel|0> + (<0|rxdel|b>*<b|r|0>)*]
 Rotatory Strengths (R) in cgs (10**-40 erg-esu-cm/Gauss)
       state          XX          YY          ZZ     R(length)
         1       -13.8634      0.9078     -1.6855     -4.8804
         2        12.4532     20.1728     -4.6659      9.3200
  1/2[<0|del|b>*<b|r|0> + (<0|r|b>*<b|del|0>)*] (Au)
       state          X           Y           Z        Dip. S.   Osc.(frdel)
         1         0.0002     -0.0001     -0.0018      0.0017      0.0011
         2        -0.0013      0.0002     -0.0195      0.0205      0.0137

 Excitation energies and oscillator strengths:
 
 Excited state symmetry could not be determined.
 Excited State   1:      Singlet-?Sym    2.0144 eV  615.48 nm  f=0.0002  <S**2>=0.000
       8 ->  9         0.70378
 This state for optimization and/or second-order correction.
 Total Energy, E(TD-HF/TD-DFT) =  -77.1969323964    
 Copying the excited state density for this state as the 1-particle RhoCI density.
 
 Excited state symmetry could not be determined.
 Excited State   2:      Singlet-?Sym    3.5997 eV  344.43 nm  f=0.0026  <S**2>=0.000
       7 ->  9         0.70811
 SavETr:  write IOETrn=   770 NScale= 10 NData=  16 NLR=1 NState=    2 LETran=      46.
          IDoAtm=111111
          Differentiating once with respect to electric field.
                with respect to dipole field.
          Differentiating once with respect to nuclear coordinates.
 Keep R1 ints in memory in canonical form, NReq=879737.
          There are     1 degrees of freedom in the 1st order CPHF.  IDoFFX=0 NUNeed=     1.
 LinEq1:  Iter=  0 NonCon=     1 RMS=2.59D-01 Max=1.51D+00 NDo=     1
 AX will form     1 AO Fock derivatives at one time.
 LinEq1:  Iter=  1 NonCon=     1 RMS=3.18D-02 Max=1.11D-01 NDo=     1
 LinEq1:  Iter=  2 NonCon=     1 RMS=6.30D-03 Max=2.05D-02 NDo=     1
 LinEq1:  Iter=  3 NonCon=     1 RMS=1.98D-03 Max=8.83D-03 NDo=     1
 LinEq1:  Iter=  4 NonCon=     1 RMS=4.50D-04 Max=1.67D-03 NDo=     1
 LinEq1:  Iter=  5 NonCon=     1 RMS=8.54D-05 Max=2.94D-04 NDo=     1
 LinEq1:  Iter=  6 NonCon=     1 RMS=2.03D-05 Max=8.64D-05 NDo=     1
 LinEq1:  Iter=  7 NonCon=     1 RMS=5.42D-06 Max=2.12D-05 NDo=     1
 LinEq1:  Iter=  8 NonCon=     1 RMS=1.30D-06 Max=3.91D-06 NDo=     1
 LinEq1:  Iter=  9 NonCon=     1 RMS=1.97D-07 Max=5.91D-07 NDo=     1
 LinEq1:  Iter= 10 NonCon=     1 RMS=4.36D-08 Max=1.56D-07 NDo=     1
 LinEq1:  Iter= 11 NonCon=     1 RMS=6.01D-09 Max=1.48D-08 NDo=     1
 LinEq1:  Iter= 12 NonCon=     1 RMS=5.24D-10 Max=2.06D-09 NDo=     1
 LinEq1:  Iter= 13 NonCon=     0 RMS=5.81D-11 Max=2.18D-10 NDo=     1
 Linear equations converged to 1.000D-10 1.000D-09 after    13 iterations.
 End of Minotr F.D. properties file   721 does not exist.
 End of Minotr F.D. properties file   722 does not exist.
 End of Minotr F.D. properties file   788 does not exist.

 **********************************************************************

            Population analysis using the SCF Density.

 **********************************************************************

 Alpha  occ. eigenvalues --  -10.09175 -10.06274  -0.74516  -0.54634  -0.46513
 Alpha  occ. eigenvalues --   -0.41995  -0.28316  -0.22690
 Alpha virt. eigenvalues --    0.08351   0.11487   0.32550   0.40062   0.47127
 Alpha virt. eigenvalues --    0.63504
     Molecular Orbital Coefficients:
                           1         2         3         4         5
                           O         O         O         O         O
     Eigenvalues --   -10.09175 -10.06274  -0.74516  -0.54634  -0.46513
   1 1   C  1S          0.99242   0.01636  -0.12510  -0.20059   0.09761
   2        2S          0.02964  -0.00474   0.39498   0.72237  -0.37479
   3        2PX        -0.00286   0.00328  -0.08633  -0.03949  -0.02316
   4        2PY         0.00287  -0.00330   0.10005   0.02548   0.02544
   5        2PZ        -0.00009   0.00042   0.00095   0.01625   0.11408
   6 2   H  1S         -0.00000   0.00000   0.00018   0.00048  -0.00034
   7 3   H  1S         -0.00000  -0.00000   0.00032   0.00054  -0.00049
   8 4   C  1S         -0.01501   0.99114  -0.19906   0.08866  -0.02693
   9        2S         -0.00574   0.03871   0.57874  -0.27867   0.09581
  10        2PX        -0.00347   0.00327   0.09514   0.12045  -0.02148
  11        2PY         0.00342   0.00215   0.01054  -0.28774  -0.00323
  12        2PZ         0.00019   0.00016   0.01024   0.14111   0.49754
  13 5   H  1S         -0.00061  -0.00812   0.19614  -0.03550   0.48221
  14 6   H  1S          0.00006  -0.00926   0.19914  -0.35848  -0.29691
                           6         7         8         9        10
                           O         O         O         V         V
     Eigenvalues --    -0.41995  -0.28316  -0.22690   0.08351   0.11487
   1 1   C  1S          0.00041  -0.10522   0.02180  -0.00044  -0.00000
   2        2S         -0.00147   0.45278  -0.10097  -0.00002   0.00692
   3        2PX        -0.00101   0.52184   0.24530  -0.18385   0.57792
   4        2PY        -0.00107  -0.31200   0.58740  -0.03140   0.53169
   5        2PZ        -0.00002   0.10868   0.00114   0.97341   0.17639
   6 2   H  1S          0.57866   0.00086   0.00203   0.00020  -0.00017
   7 3   H  1S          0.57822   0.00045   0.00101  -0.00026   0.00030
   8 4   C  1S         -0.00014   0.05433   0.05519   0.01649  -0.06162
   9        2S          0.00063  -0.23630  -0.24090  -0.08726   0.30342
  10        2PX        -0.00139  -0.11573   0.62175   0.08892  -0.54072
  11        2PY        -0.00072   0.47518   0.22952  -0.02113  -0.29779
  12        2PZ         0.00011   0.12775  -0.01191  -0.07629  -0.04962
  13 5   H  1S          0.00012   0.18475   0.02514  -0.13377  -0.15103
  14 6   H  1S         -0.00010   0.14327   0.03087   0.16194  -0.13686
                          11        12        13        14
                           V         V         V         V
     Eigenvalues --     0.32550   0.40062   0.47127   0.63504
   1 1   C  1S          0.00007  -0.08776   0.03197   0.01588
   2        2S         -0.00028   0.46123  -0.17377  -0.09822
   3        2PX         0.00042  -0.59841   0.20394   0.14637
   4        2PY        -0.00002   0.54803  -0.29054  -0.06193
   5        2PZ         0.00028  -0.05120   0.04745  -0.09692
   6 2   H  1S         -0.99424  -0.00054  -0.00032  -0.00001
   7 3   H  1S          0.99450   0.00062   0.00053  -0.00005
   8 4   C  1S          0.00016   0.04932  -0.20173   0.03637
   9        2S         -0.00077  -0.22965   1.18887  -0.27943
  10        2PX         0.00073  -0.52027   0.35938   0.13078
  11        2PY        -0.00007   0.68372   0.32659  -0.54667
  12        2PZ        -0.00023   0.38297   0.31287   1.03479
  13 5   H  1S          0.00069  -0.40424  -0.93999  -0.56187
  14 6   H  1S          0.00037  -0.01142  -0.66117   1.09549
     Density Matrix:
                           1         2         3         4         5
   1 1   C  1S          2.12427
   2        2S         -0.50280   2.06881
   3        2PX        -0.07178   0.31492   0.68411
   4        2PY         0.06657  -0.30417  -0.05794   0.90742
   5        2PZ        -0.00748   0.03689   0.10725  -0.05966   0.05018
   6 2   H  1S          0.00007  -0.00025   0.00068   0.00065   0.00010
   7 3   H  1S          0.00002  -0.00011  -0.00028  -0.00027  -0.00002
   8 4   C  1S          0.00257   0.01880   0.11899  -0.01238   0.00914
   9        2S          0.01479  -0.18328  -0.44687  -0.02937  -0.03798
  10        2PX        -0.03162   0.03468   0.15934   0.82669  -0.02454
  11        2PY         0.02903  -0.02083   0.62960  -0.03958   0.09373
  12        2PZ         0.01092  -0.04288   0.09153  -0.05915   0.14587
  13 5   H  1S          0.02004  -0.09553   0.15171  -0.02372   0.14944
  14 6   H  1S          0.00705  -0.01445   0.17230  -0.04660  -0.04782
                           6         7         8         9        10
   6 2   H  1S          0.66971
   7 3   H  1S          0.66920   0.66868
   8 4   C  1S          0.00019  -0.00001   2.07361
   9        2S         -0.00078   0.00001  -0.26034   1.07437
  10        2PX         0.00088  -0.00025   0.04728  -0.20570   0.84802
  11        2PY         0.00065  -0.00024   0.02609  -0.16308   0.10824
  12        2PZ         0.00010  -0.00011   0.00703  -0.02608  -0.02981
  13 5   H  1S          0.00027  -0.00003  -0.10358   0.23918  -0.00349
  14 6   H  1S          0.00019   0.00011  -0.12624   0.29010  -0.03055
                          11        12        13        14
  11        2PY         0.72283
  12        2PZ         0.03174   0.56805
  13 5   H  1S          0.20853   0.52044   0.61418
  14 6   H  1S          0.36271  -0.35668  -0.12813   0.55577
    Full Mulliken population analysis:
                           1         2         3         4         5
   1 1   C  1S          2.12427
   2        2S         -0.12488   2.06881
   3        2PX         0.00000   0.00000   0.68411
   4        2PY         0.00000   0.00000   0.00000   0.90742
   5        2PZ         0.00000   0.00000   0.00000   0.00000   0.05018
   6 2   H  1S          0.00000  -0.00000  -0.00000  -0.00000   0.00000
   7 3   H  1S          0.00000  -0.00000   0.00000   0.00000   0.00000
   8 4   C  1S          0.00000   0.00035  -0.00272  -0.00028  -0.00000
   9        2S          0.00027  -0.04408   0.09114  -0.00586   0.00016
  10        2PX        -0.00072   0.00707  -0.01368   0.17082   0.00010
  11        2PY        -0.00065   0.00416   0.13010   0.00304   0.00039
  12        2PZ         0.00000  -0.00018  -0.00039  -0.00024   0.01827
  13 5   H  1S          0.00015  -0.01175  -0.01150  -0.00250   0.01231
  14 6   H  1S          0.00002  -0.00096  -0.00777  -0.00332   0.00152
                           6         7         8         9        10
   6 2   H  1S          0.66971
   7 3   H  1S          0.33080   0.66868
   8 4   C  1S          0.00000  -0.00000   2.07361
   9        2S         -0.00000   0.00000  -0.06466   1.07437
  10        2PX        -0.00000   0.00000   0.00000   0.00000   0.84802
  11        2PY        -0.00000   0.00000   0.00000   0.00000   0.00000
  12        2PZ         0.00000   0.00000   0.00000   0.00000   0.00000
  13 5   H  1S          0.00000  -0.00000  -0.00565   0.10964  -0.00028
  14 6   H  1S          0.00000   0.00000  -0.00842   0.14727  -0.00028
                          11        12        13        14
  11        2PY         0.72283
  12        2PZ         0.00000   0.56805
  13 5   H  1S          0.01729   0.22488   0.61418
  14 6   H  1S          0.11225   0.12946  -0.01572   0.55577
     Gross orbital populations:
                           1
   1 1   C  1S          1.99847
   2        2S          1.89854
   3        2PX         0.86930
   4        2PY         1.06908
   5        2PZ         0.08292
   6 2   H  1S          1.00052
   7 3   H  1S          0.99948
   8 4   C  1S          1.99224
   9        2S          1.30824
  10        2PX         1.01106
  11        2PY         0.98940
  12        2PZ         0.93986
  13 5   H  1S          0.93105
  14 6   H  1S          0.90983
          Condensed to atoms (all electrons):
               1          2          3          4          5          6
     1  C    5.585038  -0.000000   0.000000   0.357080  -0.013289  -0.010507
     2  H   -0.000000   0.669715   0.330802  -0.000000   0.000000   0.000000
     3  H    0.000000   0.330802   0.668682   0.000000  -0.000000   0.000000
     4  C    0.357080  -0.000000   0.000000   5.157546   0.345885   0.380286
     5  H   -0.013289   0.000000  -0.000000   0.345885   0.614177  -0.015722
     6  H   -0.010507   0.000000   0.000000   0.380286  -0.015722   0.555774
 Mulliken charges:
               1
     1  C    0.081678
     2  H   -0.000517
     3  H    0.000516
     4  C   -0.240797
     5  H    0.068950
     6  H    0.090170
 Sum of Mulliken charges =  -0.00000
 Mulliken charges with hydrogens summed into heavy atoms:
               1
     1  C    0.081162
     4  C   -0.081162
 Electronic spatial extent (au):  <R**2>=            889.6368
 Charge=             -0.0000 electrons
 Dipole moment (field-independent basis, Debye):
    X=              0.2086    Y=              0.7155    Z=             -0.0170  Tot=              0.7455
 Quadrupole moment (field-independent basis, Debye-Ang):
   XX=            -13.9511   YY=            -10.1037   ZZ=            -11.0807
   XY=              2.6432   XZ=              0.3285   YZ=              1.1259
 Traceless Quadrupole moment (field-independent basis, Debye-Ang):
   XX=             -2.2392   YY=              1.6081   ZZ=              0.6311
   XY=              2.6432   XZ=              0.3285   YZ=              1.1259
 Octapole moment (field-independent basis, Debye-Ang**2):
  XXX=            -71.9075  YYY=            -72.2563  ZZZ=            -68.6722  XYY=            -11.9909
  XXY=            -23.1304  XXZ=            -29.9235  XZZ=            -17.7839  YZZ=            -22.2379
  YYZ=            -22.1427  XYZ=              5.5870
 Hexadecapole moment (field-independent basis, Debye-Ang**3):
 XXXX=           -378.4227 YYYY=           -464.5684 ZZZZ=           -302.5312 XXXY=           -173.2831
 XXXZ=           -155.1929 YYYX=           -144.7777 YYYZ=           -160.2478 ZZZX=           -114.0374
 ZZZY=           -146.2231 XXYY=           -122.6155 XXZZ=           -114.4059 YYZZ=           -122.6024
 XXYZ=            -49.1752 YYXZ=            -27.0469 ZZXY=            -36.5010
 N-N= 2.389499225701D+01 E-N=-2.280170520442D+02  KE= 7.691540154959D+01
 Orbital energies and kinetic energies (alpha):
                                 1                 2
   1         O               -10.091748         15.650426
   2         O               -10.062741         15.609812
   3         O                -0.745160          1.303922
   4         O                -0.546345          1.469805
   5         O                -0.465133          1.048605
   6         O                -0.419951          0.582198
   7         O                -0.283158          1.424254
   8         O                -0.226896          1.368680
   9         V                 0.083510          1.518409
  10         V                 0.114872          1.648830
  11         V                 0.325502          1.285568
  12         V                 0.400622          2.350364
  13         V                 0.471266          2.425688
  14         V                 0.635042          2.331300
 Total kinetic energy from orbitals= 7.691540154959D+01
 Calling FoFJK, ICntrl=  10005127 FMM=F ISym2X=0 I1Cent= 0 IOpClX= 0 NMat=1 NMatS=1 NMatT=0.
 -------------------------------------------------------------------
 Center     Atomic                   Forces (Hartrees/Bohr)
 Number     Number              X              Y              Z
 -------------------------------------------------------------------
      1        6          -0.069181692    0.051107820   -0.022106386
      2        1          -0.003433707    0.042649704   -0.117697577
      3        1           0.003474730   -0.042607141    0.117700653
      4        6           0.111029710   -0.118571364    0.068969255
      5        1          -0.033664023    0.031079958   -0.026576671
      6        1          -0.008225019    0.036341022   -0.020289273
 -------------------------------------------------------------------
 Cartesian Forces:  Max     0.118571364 RMS     0.064549830

 GradGradGradGradGradGradGradGradGradGradGradGradGradGradGradGradGradGrad
 Berny optimization.
 Search for a local minimum.
 Step number   1 out of a maximum of    2
 All quantities printed in internal units (Hartrees-Bohrs-Radians)
 Second derivative matrix not updated -- first step.
 The second derivative matrix:
                          X1        Y1        Z1        X2        Y2
           X1           0.09989
           Y1          -0.09178   0.09581
           Z1          -0.00057  -0.00393   0.02619
           X2           0.00000   0.00000   0.00000   1.00000
           Y2           0.00000   0.00000   0.00000   0.00000   1.00000
           Z2           0.00000   0.00000   0.00000   0.00000   0.00000
           X3           0.00000   0.00000   0.00000   0.00000   0.00000
           Y3           0.00000   0.00000   0.00000   0.00000   0.00000
           Z3           0.00000   0.00000   0.00000   0.00000   0.00000
           X4          -0.11134   0.08010   0.00170   0.00000   0.00000
           Y4           0.09848  -0.08884   0.00997   0.00000   0.00000
           Z4           0.00404   0.00732  -0.03410   0.00000   0.00000
           X5           0.00320   0.00360   0.01604   0.00000   0.00000
           Y5          -0.00251  -0.00288  -0.01573   0.00000   0.00000
           Z5          -0.00011  -0.00011   0.00008   0.00000   0.00000
           X6           0.00825   0.00808  -0.01717   0.00000   0.00000
           Y6          -0.00419  -0.00409   0.00970   0.00000   0.00000
           Z6          -0.00337  -0.00328   0.00783   0.00000   0.00000
                          Z2        X3        Y3        Z3        X4
           Z2           1.00000
           X3           0.00000   1.00000
           Y3           0.00000   0.00000   1.00000
           Z3           0.00000   0.00000   0.00000   1.00000
           X4           0.00000   0.00000   0.00000   0.00000   0.18459
           Y4           0.00000   0.00000   0.00000   0.00000  -0.07748
           Z4           0.00000   0.00000   0.00000   0.00000   0.03384
           X5           0.00000   0.00000   0.00000   0.00000  -0.03333
           Y5           0.00000   0.00000   0.00000   0.00000  -0.00465
           Z5           0.00000   0.00000   0.00000   0.00000  -0.04601
           X6           0.00000   0.00000   0.00000   0.00000  -0.03992
           Y6           0.00000   0.00000   0.00000   0.00000   0.00204
           Z6           0.00000   0.00000   0.00000   0.00000   0.01047
                          Y4        Z4        X5        Y5        Z5
           Y4           0.38472
           Z4          -0.11611   0.54797
           X5          -0.00649  -0.06833   0.02793
           Y5          -0.08202  -0.05160  -0.00180   0.05859
           Z5          -0.03866  -0.26728   0.04823   0.04467   0.27229
           X6          -0.01450   0.03045   0.00220   0.00896  -0.00212
           Y6          -0.21386   0.16040   0.00469   0.02631  -0.00591
           Z6           0.14480  -0.24659   0.00405   0.02266  -0.00509
                          X6        Y6        Z6
           X6           0.02946
           Y6          -0.00254   0.19163
           Z6          -0.01116  -0.16419   0.24385
 ITU=  0
     Eigenvalues ---    0.04468   0.05669   0.07966   0.12195   0.19546
     Eigenvalues ---    0.35690   0.51513   0.82099   0.89320   0.97348
     Eigenvalues ---    0.99934   1.00000
 Quadratic step=8.215D-01 exceeds max=3.000D-01 adjusted using Lamda=-2.879D-01.
 Angle between NR and scaled steps=  36.00 degrees.
 Angle between quadratic step and forces=  23.20 degrees.
 Linear search not attempted -- first point.
 B after Tr=    -0.020392    0.015402   -0.003273
         Rot=    0.999991   -0.002519   -0.003041    0.001277 Ang=  -0.48 deg.
 Variable       Old X    -DE/DX   Delta X   Delta X   Delta X     New X
                                 (Linear)    (Quad)   (Total)
    X1        5.17810  -0.06918   0.00000  -0.10043  -0.08791   5.09020
    Y1        3.54372   0.05111   0.00000   0.07379   0.05654   3.60026
    Z1        3.93652  -0.02211   0.00000  -0.03161  -0.04772   3.88880
    X2       -2.01270  -0.00343   0.00000  -0.00215   0.00058  -2.01212
    Y2       -1.94936   0.04265   0.00000   0.03259   0.02988  -1.91948
    Z2        4.70068  -0.11770   0.00000  -0.09183  -0.09262   4.60806
    X3       -2.06495   0.00347   0.00000   0.00467  -0.00084  -2.06579
    Y3       -1.30372  -0.04261   0.00000  -0.03507  -0.02960  -1.33332
    Z3        2.91807   0.11770   0.00000   0.09038   0.09282   3.01088
    X4        2.90838   0.11103   0.00000   0.14984   0.16780   3.07618
    Y4        5.76473  -0.11857   0.00000  -0.11086  -0.12315   5.64158
    Z4        3.89105   0.06897   0.00000   0.04192   0.04835   3.93940
    X5        3.29171  -0.03366   0.00000  -0.09772  -0.06590   3.22581
    Y5        6.16677   0.03108   0.00000   0.08467   0.06179   6.22856
    Z5        5.98636  -0.02658   0.00000  -0.02498  -0.01644   5.96992
    X6        2.94707  -0.00823   0.00000  -0.02584  -0.01374   2.93333
    Y6        7.06516   0.03634   0.00000   0.00861   0.00454   7.06971
    Z6        2.36586  -0.02029   0.00000   0.00117   0.01562   2.38148
         Item               Value     Threshold  Converged?
 Maximum Force            0.118571     0.000450     NO 
 RMS     Force            0.064550     0.000300     NO 
 Maximum Displacement     0.167802     0.001800     NO 
 RMS     Displacement     0.069407     0.001200     NO 
 Predicted change in Energy=-5.069174D-02
 GradGradGradGradGradGradGradGradGradGradGradGradGradGradGradGradGradGrad

 Unable to Open any file for archive entry.
 1\1\GINC-BLUEHIVE\Force\RwB97XD TD-FC\STO-3G\C2H4\BWEIGHT\07-Jan-2023\
 0\\# WB97XD/STO-3G SCF=XQC TD=(singlets,nstates=2,root=1) FORCE nosym 
 pop=full guess=read\\MD Step 1000\\0,1\C,2.74013463,1.8752577,2.083114
 81\H,-1.06507604,-1.03155638,2.48749307\H,-1.09272681,-0.68990011,1.54
 417368\C,1.53904851,3.05056607,2.05905601\H,1.74189868,3.26331677,3.16
 784543\H,1.55951981,3.73872426,1.25195983\\Version=ES64L-G16RevC.01\HF
 =-77.2709608\RMSD=5.194e-10\RMSF=6.455e-02\Dipole=-0.2082274,0.4473136
 ,0.0218711\PG=C01 [X(C2H4)]\\@
 The archive entry for this job was punched.


 THE WORLD IS NOT A HAMBURGER - YOU CAN'T HAVE IT YOUR WAY.
 Job cpu time:       0 days  0 hours  0 minutes 16.5 seconds.
 Elapsed time:       0 days  0 hours  0 minutes 35.8 seconds.
 File lengths (MBytes):  RWF=    272 Int=      0 D2E=      0 Chk=     32 Scr=     32
 Normal termination of Gaussian 16 at Sat Jan  7 18:12:33 2023.
