 Entering Gaussian System, Link 0=g16
 Initial command:
 /software/gaussian/g16-c01/avx/g16/l1.exe "/gpfs/fs2/scratch/bweight/software/many_molecule_many_mode_NAMD/src/WFN_OVERLAP/PYTHON/G16_EXAMPLE/GAU_TMP_PREV/Gau-15440.inp" -scrdir="/gpfs/fs2/scratch/bweight/software/many_molecule_many_mode_NAMD/src/WFN_OVERLAP/PYTHON/G16_EXAMPLE/GAU_TMP_PREV/"
 Entering Link 1 = /software/gaussian/g16-c01/avx/g16/l1.exe PID=     15441.
  
 Copyright (c) 1988-2019, Gaussian, Inc.  All Rights Reserved.
  
 This is part of the Gaussian(R) 16 program.  It is based on
 the Gaussian(R) 09 system (copyright 2009, Gaussian, Inc.),
 the Gaussian(R) 03 system (copyright 2003, Gaussian, Inc.),
 the Gaussian(R) 98 system (copyright 1998, Gaussian, Inc.),
 the Gaussian(R) 94 system (copyright 1995, Gaussian, Inc.),
 the Gaussian 92(TM) system (copyright 1992, Gaussian, Inc.),
 the Gaussian 90(TM) system (copyright 1990, Gaussian, Inc.),
 the Gaussian 88(TM) system (copyright 1988, Gaussian, Inc.),
 the Gaussian 86(TM) system (copyright 1986, Carnegie Mellon
 University), and the Gaussian 82(TM) system (copyright 1983,
 Carnegie Mellon University). Gaussian is a federally registered
 trademark of Gaussian, Inc.
  
 This software contains proprietary and confidential information,
 including trade secrets, belonging to Gaussian, Inc.
  
 This software is provided under written license and may be
 used, copied, transmitted, or stored only in accord with that
 written license.
  
 The following legend is applicable only to US Government
 contracts under FAR:
  
                    RESTRICTED RIGHTS LEGEND
  
 Use, reproduction and disclosure by the US Government is
 subject to restrictions as set forth in subparagraphs (a)
 and (c) of the Commercial Computer Software - Restricted
 Rights clause in FAR 52.227-19.
  
 Gaussian, Inc.
 340 Quinnipiac St., Bldg. 40, Wallingford CT 06492
  
  
 ---------------------------------------------------------------
 Warning -- This program may not be used in any manner that
 competes with the business of Gaussian, Inc. or will provide
 assistance to any competitor of Gaussian, Inc.  The licensee
 of this program is prohibited from giving any competitor of
 Gaussian, Inc. access to this program.  By using this program,
 the user acknowledges that Gaussian, Inc. is engaged in the
 business of creating and licensing software in the field of
 computational chemistry and represents and warrants to the
 licensee that it is not a competitor of Gaussian, Inc. and that
 it will not use this program in any manner prohibited above.
 ---------------------------------------------------------------
  

 Cite this work as:
 Gaussian 16, Revision C.01,
 M. J. Frisch, G. W. Trucks, H. B. Schlegel, G. E. Scuseria, 
 M. A. Robb, J. R. Cheeseman, G. Scalmani, V. Barone, 
 G. A. Petersson, H. Nakatsuji, X. Li, M. Caricato, A. V. Marenich, 
 J. Bloino, B. G. Janesko, R. Gomperts, B. Mennucci, H. P. Hratchian, 
 J. V. Ortiz, A. F. Izmaylov, J. L. Sonnenberg, D. Williams-Young, 
 F. Ding, F. Lipparini, F. Egidi, J. Goings, B. Peng, A. Petrone, 
 T. Henderson, D. Ranasinghe, V. G. Zakrzewski, J. Gao, N. Rega, 
 G. Zheng, W. Liang, M. Hada, M. Ehara, K. Toyota, R. Fukuda, 
 J. Hasegawa, M. Ishida, T. Nakajima, Y. Honda, O. Kitao, H. Nakai, 
 T. Vreven, K. Throssell, J. A. Montgomery, Jr., J. E. Peralta, 
 F. Ogliaro, M. J. Bearpark, J. J. Heyd, E. N. Brothers, K. N. Kudin, 
 V. N. Staroverov, T. A. Keith, R. Kobayashi, J. Normand, 
 K. Raghavachari, A. P. Rendell, J. C. Burant, S. S. Iyengar, 
 J. Tomasi, M. Cossi, J. M. Millam, M. Klene, C. Adamo, R. Cammi, 
 J. W. Ochterski, R. L. Martin, K. Morokuma, O. Farkas, 
 J. B. Foresman, and D. J. Fox, Gaussian, Inc., Wallingford CT, 2019.
 
 ******************************************
 Gaussian 16:  ES64L-G16RevC.01  3-Jul-2019
                26-Dec-2022 
 ******************************************
 %chk=geometry.chk
 %rwf=geometry.rwf
 %mem=4GB
 %nprocshared=1
 Will use up to    1 processors via shared memory.
 -----------------------------------------------------------
 # FORCE TD=(singlets,nstates=5) BLYP/STO-3G nosymm pop=full
 -----------------------------------------------------------
 1/10=7,30=1,38=1/1,3;
 2/12=2,15=1,17=6,18=5,40=1/2;
 3/6=3,11=9,25=1,30=1,71=1,74=402/1,2,3,8;
 4//1;
 5/5=2,38=5/2;
 8/6=1,10=1,108=5/1;
 9/15=2,41=5,42=1,48=1,70=2/14;
 10/5=4,31=1/2;
 6/7=3,18=1/1;
 7/12=6,13=5,29=1,30=1/1,2,3,16;
 1/10=7,30=1/3;
 99//99;
 -------
 TitleMe
 -------
 Symbolic Z-matrix:
 Charge =  0 Multiplicity = 1
 c                    -0.70973   0.00004  -0.00051 
 c                    -0.00938  -1.2192   -0.00224 
 c                     1.37458  -1.22038  -0.0079 
 c                     2.10217  -0.00001  -0.004 
 c                     1.37459   1.22034  -0.00787 
 c                    -0.0094    1.21924  -0.00216 
 h                    -0.56421  -2.17411  -0.00104 
 h                     1.91018  -2.18179  -0.00734 
 h                     1.91011   2.18183  -0.00738 
 h                    -0.56415   2.17417  -0.00082 
 n                     3.47906  -0.00003   0.06018 
 h                     3.95344  -0.84481  -0.14732 
 h                     3.95343   0.84491  -0.14674 
 n                    -2.18763   0.        0.00146 
 o                    -2.77348   1.05131   0.0016 
 o                    -2.77349  -1.05135   0.0018 
 

 GradGradGradGradGradGradGradGradGradGradGradGradGradGradGradGradGradGrad
 Berny optimization.
 Initialization pass.
 Trust Radius=3.00D-01 FncErr=1.00D-07 GrdErr=1.00D-07 EigMax=2.50D+02 EigMin=1.00D-04
 Number of steps in this run=      2 maximum allowed number of steps=      2.
 GradGradGradGradGradGradGradGradGradGradGradGradGradGradGradGradGradGrad

                          Input orientation:                          
 ---------------------------------------------------------------------
 Center     Atomic      Atomic             Coordinates (Angstroms)
 Number     Number       Type             X           Y           Z
 ---------------------------------------------------------------------
      1          6           0       -0.709730    0.000040   -0.000510
      2          6           0       -0.009380   -1.219200   -0.002240
      3          6           0        1.374580   -1.220380   -0.007900
      4          6           0        2.102169   -0.000010   -0.004000
      5          6           0        1.374590    1.220339   -0.007870
      6          6           0       -0.009400    1.219240   -0.002160
      7          1           0       -0.564210   -2.174109   -0.001040
      8          1           0        1.910179   -2.181789   -0.007340
      9          1           0        1.910109    2.181829   -0.007380
     10          1           0       -0.564150    2.174169   -0.000820
     11          7           0        3.479059   -0.000030    0.060180
     12          1           0        3.953438   -0.844810   -0.147320
     13          1           0        3.953428    0.844910   -0.146740
     14          7           0       -2.187629    0.000000    0.001460
     15          8           0       -2.773479    1.051310    0.001600
     16          8           0       -2.773489   -1.051350    0.001800
 ---------------------------------------------------------------------
                    Distance matrix (angstroms):
                    1          2          3          4          5
     1  C    0.000000
     2  C    1.406072   0.000000
     3  C    2.415331   1.383972   0.000000
     4  C    2.811901   2.438251   1.420811   0.000000
     5  C    2.415279   2.804773   2.440719   1.420789   0.000000
     6  C    1.406027   2.438439   2.804848   2.438298   1.384002
     7  H    2.179014   1.104396   2.160683   3.440391   3.909127
     8  H    3.409450   2.147397   1.100534   2.190213   3.444029
     9  H    3.409370   3.905312   3.444099   2.190279   1.100565
    10  H    2.178998   3.438419   3.909179   3.440396   2.160683
    11  N    4.189228   3.695873   2.433664   1.378384   2.433664
    12  H    4.741356   3.983108   2.609790   2.039957   3.306773
    13  H    4.741332   4.470490   3.306835   2.039957   2.609721
    14  N    1.477901   2.496243   3.765467   4.289802   3.765464
    15  O    2.316081   3.577075   4.729382   4.987710   4.151522
    16  O    2.316145   2.769203   4.151522   4.987724   4.729399
                    6          7          8          9         10
     6  C    0.000000
     7  H    3.438405   0.000000
     8  H    3.905356   2.474409   0.000000
     9  H    2.147352   5.009640   4.363618   0.000000
    10  H    1.104373   4.348278   5.009662   2.474280   0.000000
    11  N    3.695923   4.591120   2.688125   2.688248   4.591122
    12  H    4.470510   4.711431   2.445816   3.654493   5.435467
    13  H    3.983094   5.435509   3.654477   2.445798   4.711341
    14  N    2.496245   2.713346   4.642447   4.642404   2.713430
    15  O    2.769178   3.909502   5.691191   4.818107   2.478297
    16  O    3.577119   2.478207   4.818166   5.691188   3.909624
                   11         12         13         14         15
    11  N    0.000000
    12  H    0.990831   0.000000
    13  H    0.990841   1.689719   0.000000
    14  N    5.666992   6.200689   6.200679   0.000000
    15  O    6.340581   6.990627   6.731708   1.203525   0.000000
    16  O    6.340586   6.731749   6.990657   1.203565   2.102659
                   16
    16  O    0.000000
 Symmetry turned off by external request.
 Stoichiometry    C6H6N2O2
 Framework group  C1[X(C6H6N2O2)]
 Deg. of freedom    42
 Full point group                 C1      NOp   1
 Rotational constants (GHZ):           3.9658842           0.8075708           0.6711127
 Standard basis: STO-3G (5D, 7F)
    56 basis functions,   168 primitive gaussians,    56 cartesian basis functions
    36 alpha electrons       36 beta electrons
       nuclear repulsion energy       493.9926967493 Hartrees.
 NAtoms=   16 NActive=   16 NUniq=   16 SFac= 1.00D+00 NAtFMM=   60 NAOKFM=F Big=F
 Integral buffers will be    131072 words long.
 Regular integral format.
 Two-electron integral symmetry is turned off.
 One-electron integrals computed using PRISM.
 NBasis=    56 RedAO= T EigKep=  1.76D-01  NBF=    56
 NBsUse=    56 1.00D-06 EigRej= -1.00D+00 NBFU=    56
 ExpMin= 1.69D-01 ExpMax= 1.31D+02 ExpMxC= 1.31D+02 IAcc=3 IRadAn=         5 AccDes= 0.00D+00
 Harris functional with IExCor=  402 and IRadAn=       5 diagonalized for initial guess.
 HarFok:  IExCor=  402 AccDes= 0.00D+00 IRadAn=         5 IDoV= 1 UseB2=F ITyADJ=14
 ICtDFT=  3500011 ScaDFX=  1.000000  1.000000  1.000000  1.000000
 FoFCou: FMM=F IPFlag=           0 FMFlag=      100000 FMFlg1=           0
         NFxFlg=           0 DoJE=T BraDBF=F KetDBF=T FulRan=T
         wScrn=  0.000000 ICntrl=       500 IOpCl=  0 I1Cent=   200000004 NGrid=           0
         NMat0=    1 NMatS0=      1 NMatT0=    0 NMatD0=    1 NMtDS0=    0 NMtDT0=    0
 Symmetry not used in FoFCou.
 Keep J ints in memory in canonical form, NReq=2156947.
 Requested convergence on RMS density matrix=1.00D-08 within 128 cycles.
 Requested convergence on MAX density matrix=1.00D-06.
 Requested convergence on             energy=1.00D-06.
 No special actions if energy rises.
 Integral accuracy reduced to 1.0D-05 until final iterations.
 Initial convergence to 1.0D-05 achieved.  Increase integral accuracy.
 SCF Done:  E(RB-LYP) =  -485.455213133     A.U. after   17 cycles
            NFock= 17  Conv=0.31D-08     -V/T= 2.0157
 DoSCS=F DFT=T ScalE2(SS,OS)=  1.000000  1.000000
 ExpMin= 1.69D-01 ExpMax= 1.31D+02 ExpMxC= 1.31D+02 IAcc=3 IRadAn=         5 AccDes= 0.00D+00
 HarFok:  IExCor=  205 AccDes= 0.00D+00 IRadAn=         5 IDoV=-2 UseB2=F ITyADJ=14
 ICtDFT= 12500011 ScaDFX=  1.000000  1.000000  1.000000  1.000000
 Range of M.O.s used for correlation:    11    56
 NBasis=    56 NAE=    36 NBE=    36 NFC=    10 NFV=     0
 NROrb=     46 NOA=    26 NOB=    26 NVA=    20 NVB=    20

 **** Warning!!: The smallest alpha delta epsilon is  0.94129621D-01

 Keep J ints in memory in canonical form, NReq=2721926.
    20 initial guesses have been made.
 Convergence on wavefunction:    0.000001000000000
 Iteration     1 Dimension    20 NMult     0 NNew     20
 CISAX will form    20 AO SS matrices at one time.
 New state      4 was old state      6
 New state      5 was old state      8
 Iteration     2 Dimension    40 NMult    20 NNew     20
 Iteration     3 Dimension    45 NMult    40 NNew      5
 Iteration     4 Dimension    50 NMult    45 NNew      5
 Iteration     5 Dimension    55 NMult    50 NNew      5
 Iteration     6 Dimension    60 NMult    55 NNew      5
 Iteration     7 Dimension    65 NMult    60 NNew      5
 Iteration     8 Dimension    69 NMult    65 NNew      4
 Iteration     9 Dimension    72 NMult    69 NNew      3
 Iteration    10 Dimension    75 NMult    72 NNew      3
 ***********************************************************************
 Excited states from <AA,BB:AA,BB> singles matrix:
 ***********************************************************************
 
 Ground to excited state transition densities written to RWF  633
 Ground to excited state transition electric dipole moments (Au):
       state          X           Y           Z        Dip. S.      Osc.
         1         0.0001      0.0002     -0.0000      0.0000      0.0000
         2         0.0001      0.0000     -0.0442      0.0020      0.0002
         3        -0.0001     -0.0000     -0.0445      0.0020      0.0002
         4        -0.0000     -0.0008      0.0000      0.0000      0.0000
         5        -0.1405      0.0001     -0.0035      0.0198      0.0021
 Ground to excited state transition velocity dipole moments (Au):
       state          X           Y           Z        Dip. S.      Osc.
         1        -0.0000     -0.0000      0.0000      0.0000      0.0000
         2        -0.0001     -0.0000      0.0141      0.0002      0.0011
         3         0.0001     -0.0000     -0.0041      0.0000      0.0001
         4         0.0000      0.0002     -0.0000      0.0000      0.0000
         5         0.0233     -0.0000      0.0001      0.0005      0.0022
 Ground to excited state transition magnetic dipole moments (Au):
       state          X           Y           Z
         1        -0.6287     -0.0001     -0.0011
         2         0.0000      0.0870     -0.0001
         3         0.0001     -0.7324      0.0001
         4        -0.0684      0.0001     -0.0016
         5         0.0000     -0.0008      0.0000
 Ground to excited state transition velocity quadrupole moments (Au):
       state          XX          YY          ZZ          XY          XZ          YZ
         1         0.0000     -0.0000      0.0000      0.0002      0.0000     -0.0032
         2        -0.0005      0.0002     -0.0002     -0.0000      0.0146     -0.0000
         3         0.0009     -0.0003     -0.0003      0.0000      0.0801      0.0000
         4        -0.0000     -0.0000      0.0000      0.0003     -0.0000      0.0287
         5         0.0267     -0.0059     -0.0008      0.0000      0.0011      0.0000
 <0|del|b> * <b|rxdel|0> + <0|del|b> * <b|delr+rdel|0>
 Rotatory Strengths (R) in cgs (10**-40 erg-esu-cm/Gauss)
       state          XX          YY          ZZ    R(velocity)    E-M Angle
         1         0.0000      0.0116      0.0115      0.0077       90.00
         2        -0.0029     -0.0019     -0.0002     -0.0016       90.00
         3        -0.0004     -0.0009      0.0007     -0.0002       90.00
         4         0.0000     -0.0005     -0.0013     -0.0006       90.00
         5         0.0000      0.0016      0.0011      0.0009       90.00
 1/2[<0|r|b>*<b|rxdel|0> + (<0|rxdel|b>*<b|r|0>)*]
 Rotatory Strengths (R) in cgs (10**-40 erg-esu-cm/Gauss)
       state          XX          YY          ZZ     R(length)
         1         0.0405      0.0000     -0.0000      0.0135
         2        -0.0000     -0.0014     -0.0017     -0.0011
         3         0.0000     -0.0012      0.0032      0.0007
         4        -0.0006      0.0000      0.0000     -0.0002
         5         0.0027      0.0000      0.0000      0.0009
  1/2[<0|del|b>*<b|r|0> + (<0|r|b>*<b|del|0>)*] (Au)
       state          X           Y           Z        Dip. S.   Osc.(frdel)
         1        -0.0000     -0.0000     -0.0000      0.0000      0.0000
         2        -0.0000     -0.0000     -0.0006      0.0006      0.0004
         3        -0.0000      0.0000      0.0002     -0.0002     -0.0001
         4        -0.0000     -0.0000     -0.0000      0.0000      0.0000
         5        -0.0033     -0.0000     -0.0000      0.0033      0.0022

 Excitation energies and oscillator strengths:
 
 Excited state symmetry could not be determined.
 Excited State   1:      Singlet-?Sym    2.7402 eV  452.46 nm  f=0.0000  <S**2>=0.000
      36 -> 37         0.70485
 This state for optimization and/or second-order correction.
 Total Energy, E(TD-HF/TD-DFT) =  -485.354511463    
 Copying the excited state density for this state as the 1-particle RhoCI density.
 
 Excited state symmetry could not be determined.
 Excited State   2:      Singlet-?Sym    3.2807 eV  377.92 nm  f=0.0002  <S**2>=0.000
      36 -> 38         0.70673
 
 Excited state symmetry could not be determined.
 Excited State   3:      Singlet-?Sym    3.5517 eV  349.09 nm  f=0.0002  <S**2>=0.000
      35 -> 37         0.70543
 
 Excited state symmetry could not be determined.
 Excited State   4:      Singlet-?Sym    4.0620 eV  305.23 nm  f=0.0000  <S**2>=0.000
      35 -> 38         0.70706
 
 Excited state symmetry could not be determined.
 Excited State   5:      Singlet-?Sym    4.4388 eV  279.32 nm  f=0.0021  <S**2>=0.000
      33 -> 37         0.12264
      34 -> 38         0.69494
 SavETr:  write IOETrn=   770 NScale= 10 NData=  16 NLR=1 NState=    5 LETran=     100.
          IDoAtm=1111111111111111
          Differentiating once with respect to electric field.
                with respect to dipole field.
          Differentiating once with respect to nuclear coordinates.
 Keep J ints in memory in canonical form, NReq=2168954.
          There are     1 degrees of freedom in the 1st order CPHF.  IDoFFX=0 NUNeed=     1.
 LinEq1:  Iter=  0 NonCon=     1 RMS=7.10D-02 Max=1.26D+00 NDo=     1
 AX will form     1 AO Fock derivatives at one time.
 LinEq1:  Iter=  1 NonCon=     1 RMS=2.38D-02 Max=2.73D-01 NDo=     1
 LinEq1:  Iter=  2 NonCon=     1 RMS=1.03D-02 Max=9.57D-02 NDo=     1
 LinEq1:  Iter=  3 NonCon=     1 RMS=1.04D-02 Max=1.38D-01 NDo=     1
 LinEq1:  Iter=  4 NonCon=     1 RMS=1.41D-02 Max=2.65D-01 NDo=     1
 LinEq1:  Iter=  5 NonCon=     1 RMS=2.62D-02 Max=2.75D-01 NDo=     1
 LinEq1:  Iter=  6 NonCon=     1 RMS=1.71D-02 Max=2.34D-01 NDo=     1
 LinEq1:  Iter=  7 NonCon=     1 RMS=3.85D-03 Max=4.32D-02 NDo=     1
 LinEq1:  Iter=  8 NonCon=     1 RMS=1.86D-03 Max=3.50D-02 NDo=     1
 LinEq1:  Iter=  9 NonCon=     1 RMS=8.44D-04 Max=5.95D-03 NDo=     1
 LinEq1:  Iter= 10 NonCon=     1 RMS=2.63D-04 Max=3.15D-03 NDo=     1
 LinEq1:  Iter= 11 NonCon=     1 RMS=1.04D-04 Max=1.09D-03 NDo=     1
 LinEq1:  Iter= 12 NonCon=     1 RMS=8.12D-06 Max=7.56D-05 NDo=     1
 LinEq1:  Iter= 13 NonCon=     1 RMS=7.15D-06 Max=1.21D-04 NDo=     1
 LinEq1:  Iter= 14 NonCon=     1 RMS=1.19D-06 Max=1.24D-05 NDo=     1
 LinEq1:  Iter= 15 NonCon=     1 RMS=1.15D-07 Max=7.93D-07 NDo=     1
 LinEq1:  Iter= 16 NonCon=     1 RMS=8.64D-08 Max=9.43D-07 NDo=     1
 LinEq1:  Iter= 17 NonCon=     1 RMS=1.86D-08 Max=1.44D-07 NDo=     1
 LinEq1:  Iter= 18 NonCon=     1 RMS=1.95D-09 Max=2.14D-08 NDo=     1
 LinEq1:  Iter= 19 NonCon=     1 RMS=1.51D-10 Max=1.35D-09 NDo=     1
 LinEq1:  Iter= 20 NonCon=     0 RMS=1.73D-11 Max=8.75D-11 NDo=     1
 Linear equations converged to 1.000D-10 1.000D-09 after    20 iterations.
 End of Minotr F.D. properties file   721 does not exist.
 End of Minotr F.D. properties file   722 does not exist.
 End of Minotr F.D. properties file   788 does not exist.

 **********************************************************************

            Population analysis using the SCF Density.

 **********************************************************************

 Alpha  occ. eigenvalues --  -18.51557 -18.51550 -14.08738 -13.88513  -9.81219
 Alpha  occ. eigenvalues --   -9.76976  -9.75652  -9.75647  -9.74797  -9.74791
 Alpha  occ. eigenvalues --   -1.06241  -0.87332  -0.81494  -0.72677  -0.64584
 Alpha  occ. eigenvalues --   -0.63389  -0.55367  -0.51686  -0.46842  -0.44322
 Alpha  occ. eigenvalues --   -0.43274  -0.39009  -0.35911  -0.35095  -0.34826
 Alpha  occ. eigenvalues --   -0.33340  -0.30244  -0.29719  -0.28781  -0.25514
 Alpha  occ. eigenvalues --   -0.21353  -0.16888  -0.10914  -0.10481  -0.09081
 Alpha  occ. eigenvalues --   -0.06195
 Alpha virt. eigenvalues --    0.03218   0.05838   0.10010   0.21099   0.23679
 Alpha virt. eigenvalues --    0.28352   0.30776   0.32783   0.37192   0.37238
 Alpha virt. eigenvalues --    0.39250   0.41845   0.45816   0.47536   0.50759
 Alpha virt. eigenvalues --    0.53891   0.54922   0.58438   0.69721   0.72466
     Molecular Orbital Coefficients:
                           1         2         3         4         5
                           O         O         O         O         O
     Eigenvalues --   -18.51557 -18.51550 -14.08738 -13.88513  -9.81219
   1 1   C  1S          0.00000   0.00000   0.00062   0.00000  -0.00063
   2        2S          0.00028   0.00004  -0.00634   0.00000  -0.00021
   3        2PX        -0.00002  -0.00000   0.00571  -0.00005  -0.00023
   4        2PY         0.00004  -0.00031   0.00000  -0.00000  -0.00000
   5        2PZ        -0.00000  -0.00000  -0.00001  -0.00000  -0.00000
   6 2   C  1S          0.00001  -0.00001  -0.00001   0.00000  -0.00016
   7        2S          0.00003   0.00007   0.00029   0.00003   0.00042
   8        2PX         0.00015   0.00008  -0.00039   0.00001   0.00014
   9        2PY        -0.00012  -0.00015  -0.00010  -0.00007   0.00014
  10        2PZ        -0.00000  -0.00000   0.00000   0.00001  -0.00000
  11 3   C  1S          0.00000   0.00000   0.00001  -0.00002  -0.00684
  12        2S         -0.00006  -0.00005   0.00000   0.00036  -0.00987
  13        2PX         0.00004   0.00003   0.00001   0.00053  -0.00340
  14        2PY         0.00001   0.00001  -0.00007  -0.00001  -0.00563
  15        2PZ        -0.00000  -0.00000   0.00000  -0.00002  -0.00005
  16 4   C  1S         -0.00000  -0.00000   0.00000   0.00062   0.99026
  17        2S          0.00000   0.00000   0.00001  -0.00772   0.04524
  18        2PX        -0.00001  -0.00000   0.00004  -0.00645  -0.00057
  19        2PY        -0.00000   0.00000   0.00000   0.00000   0.00000
  20        2PZ         0.00000   0.00000   0.00000  -0.00016   0.00023
  21 5   C  1S          0.00000  -0.00000   0.00001  -0.00002  -0.00684
  22        2S         -0.00007   0.00003   0.00000   0.00036  -0.00987
  23        2PX         0.00005  -0.00002   0.00001   0.00053  -0.00340
  24        2PY        -0.00001   0.00001   0.00007   0.00001   0.00563
  25        2PZ        -0.00000   0.00000   0.00000  -0.00002  -0.00005
  26 6   C  1S          0.00000   0.00001  -0.00001   0.00000  -0.00016
  27        2S          0.00004  -0.00006   0.00029   0.00003   0.00042
  28        2PX         0.00017  -0.00004  -0.00039   0.00001   0.00014
  29        2PY         0.00015  -0.00012   0.00010   0.00007  -0.00014
  30        2PZ        -0.00000   0.00000   0.00000   0.00001  -0.00000
  31 7   H  1S         -0.00027  -0.00033  -0.00021  -0.00002  -0.00008
  32 8   H  1S          0.00001   0.00001  -0.00002   0.00003   0.00021
  33 9   H  1S          0.00001  -0.00001  -0.00002   0.00003   0.00021
  34 10  H  1S         -0.00035   0.00025  -0.00021  -0.00002  -0.00008
  35 11  N  1S         -0.00000  -0.00000  -0.00001   0.99203   0.00080
  36        2S          0.00000   0.00000  -0.00002   0.03935  -0.00805
  37        2PX        -0.00000  -0.00000   0.00001  -0.00070   0.00559
  38        2PY        -0.00000   0.00000  -0.00000   0.00000  -0.00000
  39        2PZ        -0.00000  -0.00000   0.00000  -0.00248   0.00015
  40 12  H  1S         -0.00000  -0.00000   0.00000  -0.00881  -0.00046
  41 13  H  1S         -0.00000   0.00000   0.00000  -0.00881  -0.00046
  42 14  N  1S          0.00082   0.00011   0.99228   0.00001   0.00001
  43        2S         -0.01118  -0.00145   0.03679  -0.00001  -0.00004
  44        2PX         0.00484   0.00063  -0.00121  -0.00001  -0.00003
  45        2PY        -0.00108   0.00828   0.00000  -0.00000  -0.00000
  46        2PZ        -0.00000  -0.00000  -0.00000  -0.00000   0.00000
  47 15  O  1S          0.78729  -0.60602   0.00083  -0.00000  -0.00000
  48        2S          0.02294  -0.01730  -0.00752   0.00000   0.00000
  49        2PX         0.00215  -0.00198  -0.00207   0.00000   0.00000
  50        2PY        -0.00434   0.00288   0.00425   0.00000   0.00000
  51        2PZ        -0.00000   0.00000   0.00000  -0.00000  -0.00000
  52 16  O  1S          0.60599   0.78731   0.00083  -0.00000  -0.00000
  53        2S          0.01775   0.02259  -0.00752   0.00000   0.00000
  54        2PX         0.00157   0.00246  -0.00207   0.00000   0.00000
  55        2PY         0.00346   0.00389  -0.00425  -0.00000  -0.00000
  56        2PZ        -0.00000  -0.00000   0.00000  -0.00000  -0.00000
                           6         7         8         9        10
                           O         O         O         O         O
     Eigenvalues --    -9.76976  -9.75652  -9.75647  -9.74797  -9.74791
   1 1   C  1S          0.98900   0.00064   0.05093   0.00013   0.00302
   2        2S          0.04547  -0.00015  -0.01177  -0.00000  -0.00009
   3        2PX         0.00194  -0.00006  -0.00475  -0.00001  -0.00014
   4        2PY         0.00000  -0.00813   0.00010   0.00024  -0.00001
   5        2PZ        -0.00001  -0.00000   0.00001   0.00000   0.00000
   6 2   C  1S         -0.03452  -0.69053   0.70713   0.03437   0.03670
   7        2S         -0.01150  -0.03224   0.03313  -0.00588  -0.00535
   8        2PX         0.00323  -0.00098   0.00123  -0.00487  -0.00463
   9        2PY        -0.00591  -0.00094   0.00088   0.00007  -0.00023
  10        2PZ        -0.00001   0.00001  -0.00002   0.00002   0.00002
  11 3   C  1S         -0.00019   0.03130  -0.03746   0.72833   0.66910
  12        2S          0.00072   0.00851  -0.00920   0.03327   0.03088
  13        2PX        -0.00035  -0.00469   0.00499  -0.00061  -0.00051
  14        2PY         0.00007   0.00000  -0.00032   0.00083   0.00082
  15        2PZ         0.00000   0.00002  -0.00002   0.00003   0.00003
  16 4   C  1S          0.00068  -0.00000  -0.00036   0.00050   0.01190
  17        2S         -0.00013   0.00002   0.00127  -0.00055  -0.01315
  18        2PX         0.00026  -0.00001  -0.00041   0.00020   0.00484
  19        2PY         0.00000   0.00049  -0.00001   0.00798  -0.00034
  20        2PZ         0.00000   0.00000   0.00000   0.00000   0.00001
  21 5   C  1S         -0.00019  -0.03222  -0.03664  -0.66937   0.72808
  22        2S          0.00072  -0.00874  -0.00898  -0.03055   0.03358
  23        2PX        -0.00035   0.00482   0.00487   0.00056  -0.00056
  24        2PY        -0.00007   0.00001   0.00032   0.00075  -0.00089
  25        2PZ         0.00000  -0.00002  -0.00002  -0.00002   0.00003
  26 6   C  1S         -0.03452   0.70822   0.68942  -0.03113   0.03945
  27        2S         -0.01150   0.03307   0.03230   0.00541  -0.00583
  28        2PX         0.00323   0.00101   0.00120   0.00447  -0.00503
  29        2PY         0.00591  -0.00096  -0.00086   0.00009   0.00022
  30        2PZ        -0.00001  -0.00001  -0.00001  -0.00002   0.00002
  31 7   H  1S          0.00044   0.00650  -0.00677  -0.00013  -0.00027
  32 8   H  1S         -0.00011  -0.00048   0.00045  -0.00690  -0.00648
  33 9   H  1S         -0.00011   0.00049   0.00044   0.00633  -0.00704
  34 10  H  1S          0.00044  -0.00667  -0.00661   0.00010  -0.00028
  35 11  N  1S          0.00001   0.00000   0.00002  -0.00000  -0.00003
  36        2S         -0.00007  -0.00000  -0.00014   0.00002   0.00057
  37        2PX         0.00005   0.00000   0.00011  -0.00001  -0.00014
  38        2PY        -0.00000  -0.00008   0.00000  -0.00027   0.00001
  39        2PZ         0.00000   0.00000   0.00000  -0.00000  -0.00005
  40 12  H  1S          0.00000   0.00002  -0.00002  -0.00010  -0.00020
  41 13  H  1S          0.00000  -0.00002  -0.00002   0.00008  -0.00021
  42 14  N  1S          0.00093   0.00000   0.00002   0.00000   0.00002
  43        2S         -0.00736   0.00000   0.00013  -0.00000  -0.00011
  44        2PX        -0.00509   0.00000   0.00000  -0.00000  -0.00009
  45        2PY        -0.00000   0.00012  -0.00000   0.00006  -0.00000
  46        2PZ         0.00001   0.00000  -0.00000  -0.00000  -0.00000
  47 15  O  1S          0.00002  -0.00001   0.00001  -0.00000   0.00001
  48        2S          0.00010   0.00006  -0.00003   0.00000  -0.00002
  49        2PX         0.00004   0.00001  -0.00008   0.00002  -0.00003
  50        2PY        -0.00012   0.00003   0.00003   0.00002  -0.00001
  51        2PZ        -0.00000   0.00000   0.00000  -0.00000   0.00000
  52 16  O  1S          0.00002   0.00001   0.00001   0.00000   0.00000
  53        2S          0.00010  -0.00006  -0.00003  -0.00000  -0.00002
  54        2PX         0.00004  -0.00001  -0.00008  -0.00002  -0.00002
  55        2PY         0.00012   0.00003  -0.00003   0.00002   0.00001
  56        2PZ        -0.00000  -0.00000   0.00000   0.00000   0.00000
                          11        12        13        14        15
                           O         O         O         O         O
     Eigenvalues --    -1.06241  -0.87332  -0.81494  -0.72677  -0.64584
   1 1   C  1S         -0.02567  -0.00000  -0.01184  -0.13295  -0.12686
   2        2S          0.04988   0.00001   0.02842   0.33623   0.33987
   3        2PX        -0.03209  -0.00000   0.00878   0.04095  -0.09014
   4        2PY        -0.00000  -0.01861   0.00000   0.00001   0.00004
   5        2PZ         0.00001   0.00000  -0.00005  -0.00044  -0.00010
   6 2   C  1S         -0.00429  -0.00527  -0.01543  -0.10926  -0.01585
   7        2S          0.01010   0.01180   0.03760   0.27426   0.04493
   8        2PX        -0.00483  -0.00687   0.01262   0.01576  -0.10419
   9        2PY         0.00469   0.00116   0.00704   0.06456   0.04340
  10        2PZ         0.00000   0.00000  -0.00009  -0.00043   0.00027
  11 3   C  1S         -0.00044  -0.00070  -0.04017  -0.08318   0.08841
  12        2S          0.00114   0.00204   0.09749   0.20670  -0.23191
  13        2PX        -0.00077  -0.00129   0.02174  -0.04895  -0.02997
  14        2PY         0.00007  -0.00001   0.03368   0.03705  -0.05450
  15        2PZ         0.00000   0.00000  -0.00022  -0.00001   0.00006
  16 4   C  1S         -0.00019  -0.00000  -0.11775  -0.04960   0.10579
  17        2S          0.00046   0.00000   0.27720   0.13161  -0.29146
  18        2PX        -0.00023  -0.00000   0.09046  -0.09821   0.09387
  19        2PY         0.00000  -0.00038   0.00000   0.00000   0.00003
  20        2PZ        -0.00000  -0.00000   0.00042  -0.00067  -0.00012
  21 5   C  1S         -0.00044   0.00070  -0.04017  -0.08318   0.08834
  22        2S          0.00114  -0.00204   0.09749   0.20670  -0.23174
  23        2PX        -0.00077   0.00129   0.02174  -0.04895  -0.03000
  24        2PY        -0.00007  -0.00001  -0.03368  -0.03705   0.05451
  25        2PZ         0.00000  -0.00000  -0.00022  -0.00001   0.00006
  26 6   C  1S         -0.00429   0.00527  -0.01543  -0.10927  -0.01592
  27        2S          0.01010  -0.01179   0.03760   0.27427   0.04512
  28        2PX        -0.00483   0.00687   0.01262   0.01575  -0.10416
  29        2PY        -0.00469   0.00116  -0.00704  -0.06457  -0.04339
  30        2PZ         0.00000   0.00000  -0.00009  -0.00043   0.00027
  31 7   H  1S          0.00251   0.00655   0.00490   0.04831   0.01583
  32 8   H  1S          0.00007   0.00017   0.01781   0.03524  -0.05429
  33 9   H  1S          0.00007  -0.00017   0.01781   0.03524  -0.05424
  34 10  H  1S          0.00251  -0.00655   0.00490   0.04832   0.01587
  35 11  N  1S         -0.00003  -0.00000  -0.20233   0.06360  -0.06091
  36        2S          0.00008   0.00000   0.65398  -0.21347   0.21476
  37        2PX        -0.00004  -0.00000  -0.04161  -0.03585   0.11079
  38        2PY         0.00000  -0.00002   0.00002  -0.00001   0.00002
  39        2PZ        -0.00001  -0.00000  -0.07060   0.02672  -0.03327
  40 12  H  1S          0.00001   0.00001   0.12898  -0.05692   0.08172
  41 13  H  1S          0.00001  -0.00001   0.12897  -0.05691   0.08172
  42 14  N  1S         -0.18278  -0.00002  -0.00019  -0.01667  -0.05097
  43        2S          0.54360   0.00006   0.00110   0.06377   0.19448
  44        2PX        -0.10371  -0.00001   0.00804   0.15029   0.29319
  45        2PY         0.00004  -0.38509   0.00000   0.00000  -0.00000
  46        2PZ        -0.00007   0.00004  -0.00001  -0.00022  -0.00041
  47 15  O  1S         -0.11268   0.15129   0.00155   0.02453   0.04483
  48        2S          0.34795  -0.51063  -0.00535  -0.08905  -0.17110
  49        2PX         0.07222  -0.09382   0.00008   0.00990   0.03360
  50        2PY        -0.13500   0.12897   0.00185   0.02711   0.04011
  51        2PZ        -0.00005   0.00007  -0.00000  -0.00003  -0.00006
  52 16  O  1S         -0.11265  -0.15131   0.00155   0.02453   0.04482
  53        2S          0.34786   0.51071  -0.00535  -0.08905  -0.17108
  54        2PX         0.07220   0.09382   0.00008   0.00990   0.03360
  55        2PY         0.13496   0.12899  -0.00185  -0.02711  -0.04010
  56        2PZ        -0.00007  -0.00010  -0.00000  -0.00002  -0.00005
                          16        17        18        19        20
                           O         O         O         O         O
     Eigenvalues --    -0.63389  -0.55367  -0.51686  -0.46842  -0.44322
   1 1   C  1S          0.00003  -0.01107   0.00000   0.07885   0.00000
   2        2S         -0.00009   0.03416  -0.00000  -0.23010  -0.00001
   3        2PX         0.00003  -0.21578   0.00001  -0.22821  -0.00001
   4        2PY         0.12874  -0.00002  -0.20338  -0.00002   0.17936
   5        2PZ         0.00000   0.00061  -0.00001   0.00024   0.00002
   6 2   C  1S          0.12565   0.08800  -0.09737   0.00363   0.03642
   7        2S         -0.33530  -0.24600   0.28064  -0.00853  -0.11409
   8        2PX        -0.06811  -0.03681  -0.09347   0.10650   0.15259
   9        2PY         0.01322   0.00278  -0.00599  -0.19512  -0.02257
  10        2PZ         0.00068   0.00067  -0.00004  -0.00106  -0.00046
  11 3   C  1S          0.12988  -0.00260   0.07595  -0.07850  -0.06229
  12        2S         -0.34472   0.01175  -0.21746   0.24112   0.19565
  13        2PX         0.05920   0.14254  -0.15140  -0.01656  -0.02250
  14        2PY         0.01362   0.07346  -0.00843  -0.17285  -0.05214
  15        2PZ         0.00025   0.00084   0.00069  -0.00271  -0.00034
  16 4   C  1S         -0.00003  -0.12230   0.00001   0.06400   0.00000
  17        2S          0.00008   0.35767  -0.00002  -0.19655   0.00000
  18        2PX        -0.00002   0.02103  -0.00001  -0.06434   0.00010
  19        2PY         0.14681   0.00002   0.25811   0.00000   0.03091
  20        2PZ         0.00000   0.00476   0.00002  -0.00876   0.00006
  21 5   C  1S         -0.12992  -0.00261  -0.07595  -0.07850   0.06230
  22        2S          0.34483   0.01179   0.21746   0.24114  -0.19568
  23        2PX        -0.05918   0.14255   0.15136  -0.01657   0.02252
  24        2PY         0.01360  -0.07347  -0.00845   0.17286  -0.05204
  25        2PZ        -0.00025   0.00083  -0.00069  -0.00271   0.00038
  26 6   C  1S         -0.12565   0.08801   0.09736   0.00363  -0.03645
  27        2S          0.33527  -0.24602  -0.28061  -0.00852   0.11418
  28        2PX         0.06816  -0.03679   0.09349   0.10652  -0.15265
  29        2PY         0.01323  -0.00277  -0.00599   0.19515  -0.02247
  30        2PZ        -0.00068   0.00066   0.00003  -0.00105   0.00048
  31 7   H  1S         -0.08603  -0.07457   0.12215   0.05876  -0.07803
  32 8   H  1S         -0.09528   0.00277  -0.11662   0.17767   0.09087
  33 9   H  1S          0.09530   0.00277   0.11659   0.17768  -0.09083
  34 10  H  1S          0.08603  -0.07458  -0.12215   0.05877   0.07813
  35 11  N  1S          0.00002   0.04110  -0.00000  -0.00036  -0.00000
  36        2S         -0.00005  -0.15527   0.00001  -0.00007   0.00001
  37        2PX        -0.00003  -0.23445   0.00003   0.19474  -0.00010
  38        2PY         0.04855   0.00000   0.25792  -0.00000   0.51371
  39        2PZ         0.00002   0.03940   0.00006  -0.02188   0.00021
  40 12  H  1S         -0.02179  -0.11390  -0.14102   0.07616  -0.32351
  41 13  H  1S          0.02174  -0.11388   0.14104   0.07615   0.32344
  42 14  N  1S          0.00002  -0.07394   0.00000  -0.06231   0.00001
  43        2S         -0.00006   0.29402  -0.00001   0.25861  -0.00003
  44        2PX        -0.00009   0.29643  -0.00001   0.18169  -0.00000
  45        2PY        -0.00930   0.00000  -0.00255  -0.00000   0.01808
  46        2PZ         0.00001  -0.00030  -0.00002  -0.00034   0.00004
  47 15  O  1S          0.00819   0.04931  -0.01319   0.04049   0.01299
  48        2S         -0.03156  -0.20017   0.05445  -0.17300  -0.05626
  49        2PX         0.00139   0.05326  -0.01119   0.05659   0.01819
  50        2PY         0.00849   0.01862  -0.01202  -0.00831   0.00618
  51        2PZ        -0.00001  -0.00003   0.00001  -0.00008  -0.00001
  52 16  O  1S         -0.00822   0.04931   0.01319   0.04049  -0.01300
  53        2S          0.03167  -0.20017  -0.05445  -0.17300   0.05631
  54        2PX        -0.00142   0.05326   0.01119   0.05659  -0.01820
  55        2PY         0.00852  -0.01861  -0.01202   0.00831   0.00616
  56        2PZ         0.00001  -0.00003  -0.00002  -0.00008   0.00003
                          21        22        23        24        25
                           O         O         O         O         O
     Eigenvalues --    -0.43274  -0.39009  -0.35911  -0.35095  -0.34826
   1 1   C  1S         -0.00730   0.00008  -0.04099  -0.07704  -0.00005
   2        2S          0.01993  -0.00031   0.13920   0.25976   0.00018
   3        2PX         0.01552   0.00064  -0.07657   0.16916   0.00014
   4        2PY         0.00007   0.00000   0.00005  -0.00026   0.32675
   5        2PZ        -0.00178   0.19258  -0.00082   0.00067  -0.00002
   6 2   C  1S          0.05178   0.00008   0.03130   0.02985  -0.00449
   7        2S         -0.17173  -0.00037  -0.10152  -0.10715   0.01694
   8        2PX         0.10818   0.00157  -0.09317   0.03567   0.19045
   9        2PY         0.16140   0.00087   0.02481   0.23129  -0.21967
  10        2PZ        -0.00234   0.06273  -0.00236   0.00239  -0.00090
  11 3   C  1S         -0.02836  -0.00020  -0.01859  -0.02697   0.01662
  12        2S          0.08105   0.00057   0.06853   0.09912  -0.05952
  13        2PX        -0.02152  -0.00096   0.14135   0.09136  -0.21464
  14        2PY         0.15578   0.00040  -0.03593  -0.23997  -0.18009
  15        2PZ        -0.00697   0.02341  -0.00805   0.00526   0.00028
  16 4   C  1S          0.01433   0.00044   0.00006   0.05857   0.00005
  17        2S         -0.05656  -0.00153  -0.00437  -0.20234  -0.00016
  18        2PX        -0.35381  -0.00163  -0.10780   0.20407   0.00020
  19        2PY         0.00001   0.00002   0.00006  -0.00024   0.30853
  20        2PZ        -0.02575   0.01905  -0.02051   0.01668  -0.00006
  21 5   C  1S         -0.02832  -0.00021  -0.01861  -0.02697  -0.01666
  22        2S          0.08094   0.00061   0.06857   0.09910   0.05967
  23        2PX        -0.02151  -0.00092   0.14136   0.09076   0.21474
  24        2PY        -0.15582  -0.00040   0.03581   0.24006  -0.17969
  25        2PZ        -0.00697   0.02341  -0.00806   0.00524  -0.00035
  26 6   C  1S          0.05175   0.00010   0.03130   0.02982   0.00452
  27        2S         -0.17164  -0.00042  -0.10152  -0.10707  -0.01707
  28        2PX         0.10806   0.00156  -0.09317   0.03624  -0.19038
  29        2PY        -0.16143  -0.00089  -0.02492  -0.23118  -0.22000
  30        2PZ        -0.00236   0.06274  -0.00237   0.00235   0.00085
  31 7   H  1S         -0.18682  -0.00122  -0.00590  -0.22954   0.08866
  32 8   H  1S         -0.05368  -0.00026   0.11438   0.25740   0.02400
  33 9   H  1S         -0.05375  -0.00023   0.11431   0.25721  -0.02362
  34 10  H  1S         -0.18677  -0.00123  -0.00599  -0.22965  -0.08902
  35 11  N  1S          0.00537  -0.00048   0.01542  -0.00326   0.00000
  36        2S         -0.01644   0.00188  -0.06716   0.00893  -0.00000
  37        2PX         0.41150   0.00216   0.15002  -0.11047  -0.00014
  38        2PY         0.00014  -0.00004  -0.00002   0.00018  -0.19097
  39        2PZ        -0.05037   0.00693  -0.02123   0.02116  -0.00014
  40 12  H  1S          0.14944   0.00066   0.05196  -0.03146   0.15859
  41 13  H  1S          0.14959   0.00060   0.05192  -0.03115  -0.15867
  42 14  N  1S         -0.03208  -0.00058   0.09003   0.00007  -0.00001
  43        2S          0.13839   0.00248  -0.39613  -0.00011   0.00006
  44        2PX         0.02605   0.00017   0.29259  -0.13703  -0.00016
  45        2PY         0.00001   0.00007   0.00004  -0.00012   0.14104
  46        2PZ        -0.00170   0.73632   0.00455  -0.00247  -0.00005
  47 15  O  1S          0.02434   0.00050  -0.11539   0.01431   0.03875
  48        2S         -0.10833  -0.00226   0.53075  -0.06852  -0.18020
  49        2PX         0.01274   0.00047  -0.03067  -0.04030   0.08345
  50        2PY        -0.03933  -0.00099   0.29481  -0.07703  -0.05360
  51        2PZ        -0.00059   0.30082   0.00202  -0.00113  -0.00004
  52 16  O  1S          0.02432   0.00050  -0.11540   0.01438  -0.03869
  53        2S         -0.10828  -0.00227   0.53081  -0.06884   0.17991
  54        2PX         0.01272   0.00048  -0.03071  -0.04014  -0.08349
  55        2PY         0.03933   0.00105  -0.29481   0.07710  -0.05337
  56        2PZ        -0.00059   0.30078   0.00208  -0.00114   0.00002
                          26        27        28        29        30
                           O         O         O         O         O
     Eigenvalues --    -0.33340  -0.30244  -0.29719  -0.28781  -0.25514
   1 1   C  1S         -0.00004   0.03145   0.00002  -0.00757  -0.00000
   2        2S          0.00015  -0.10342  -0.00006   0.02491  -0.00000
   3        2PX         0.00006  -0.08861  -0.00006   0.01696  -0.00001
   4        2PY        -0.00774   0.00005   0.00171   0.00002   0.33318
   5        2PZ        -0.00001   0.03646   0.00004   0.17726  -0.00003
   6 2   C  1S         -0.02468  -0.00325   0.00974   0.00290   0.00767
   7        2S          0.07572  -0.00044  -0.03928  -0.00717  -0.01592
   8        2PX         0.25592   0.31330   0.09287  -0.08893   0.03223
   9        2PY         0.20572   0.04403   0.01267  -0.01405  -0.29434
  10        2PZ        -0.00115   0.04797  -0.00057   0.21973   0.00075
  11 3   C  1S         -0.02072  -0.01018  -0.00074   0.00064  -0.00623
  12        2S          0.06031   0.02612   0.00426  -0.00029   0.01320
  13        2PX        -0.25547  -0.29663  -0.09016   0.08627   0.01662
  14        2PY         0.22504  -0.01216  -0.13790   0.01329   0.25296
  15        2PZ         0.00101   0.07899  -0.00028   0.29520   0.00158
  16 4   C  1S          0.00003   0.03337   0.00002  -0.00430  -0.00001
  17        2S         -0.00011  -0.11300  -0.00008   0.01280   0.00003
  18        2PX         0.00013   0.17994   0.00014  -0.09658  -0.00004
  19        2PY        -0.03469  -0.00015   0.19662   0.00006  -0.31482
  20        2PZ        -0.00004   0.14315   0.00004   0.45270   0.00004
  21 5   C  1S          0.02069  -0.01019   0.00072   0.00063   0.00623
  22        2S         -0.06020   0.02616  -0.00422  -0.00024  -0.01319
  23        2PX         0.25552  -0.29678   0.08977   0.08642  -0.01655
  24        2PY         0.22529   0.01231  -0.13786  -0.01334   0.25294
  25        2PZ        -0.00106   0.07900   0.00034   0.29519  -0.00162
  26 6   C  1S          0.02472  -0.00324  -0.00974   0.00291  -0.00766
  27        2S         -0.07586  -0.00046   0.03928  -0.00721   0.01591
  28        2PX        -0.25582   0.31346  -0.09245  -0.08905  -0.03232
  29        2PY         0.20545  -0.04418   0.01261   0.01405  -0.29430
  30        2PZ         0.00115   0.04794   0.00064   0.21974  -0.00087
  31 7   H  1S         -0.21945  -0.16340  -0.08976   0.04788   0.24955
  32 8   H  1S         -0.24984  -0.11636   0.08275   0.03346  -0.24572
  33 9   H  1S          0.25011  -0.11627  -0.08289   0.03349   0.24574
  34 10  H  1S          0.21915  -0.16361   0.08953   0.04793  -0.24949
  35 11  N  1S         -0.00000  -0.03387  -0.00002  -0.00718  -0.00000
  36        2S          0.00000   0.15184   0.00009   0.02738   0.00000
  37        2PX        -0.00008  -0.21047  -0.00015   0.11766   0.00005
  38        2PY        -0.07025  -0.00001  -0.05828  -0.00019   0.04090
  39        2PZ        -0.00006   0.11317  -0.00002   0.32067   0.00012
  40 12  H  1S          0.04450  -0.07368   0.06285   0.02536  -0.07003
  41 13  H  1S         -0.04454  -0.07361  -0.06296   0.02520   0.07006
  42 14  N  1S          0.00001  -0.00088  -0.00000   0.00179  -0.00000
  43        2S         -0.00005   0.00951   0.00002  -0.00967   0.00000
  44        2PX         0.00000   0.28259   0.00019  -0.06554  -0.00002
  45        2PY         0.01874   0.00028  -0.45320  -0.00002  -0.15272
  46        2PZ        -0.00002  -0.02870   0.00001  -0.11379   0.00002
  47 15  O  1S          0.00913  -0.03728  -0.09566   0.00748  -0.02973
  48        2S         -0.04107   0.17593   0.45841  -0.03544   0.14407
  49        2PX         0.02781   0.03747  -0.25597  -0.00995  -0.10276
  50        2PY         0.00837   0.15091   0.27629  -0.03273   0.11200
  51        2PZ        -0.00003  -0.01624  -0.00003  -0.06923  -0.00004
  52 16  O  1S         -0.00916  -0.03740   0.09561   0.00748   0.02974
  53        2S          0.04117   0.17650  -0.45817  -0.03546  -0.14410
  54        2PX        -0.02786   0.03714   0.25599  -0.00994   0.10276
  55        2PY         0.00834  -0.15124   0.27609   0.03273   0.11202
  56        2PZ         0.00001  -0.01620  -0.00006  -0.06923   0.00002
                          31        32        33        34        35
                           O         O         O         O         O
     Eigenvalues --    -0.21353  -0.16888  -0.10914  -0.10481  -0.09081
   1 1   C  1S         -0.00055   0.00000  -0.00033  -0.00000   0.05529
   2        2S          0.00185  -0.00001   0.00130   0.00001  -0.25531
   3        2PX        -0.00142  -0.00000  -0.00048  -0.00001   0.34089
   4        2PY        -0.00003  -0.00095  -0.00003   0.00001   0.00000
   5        2PZ        -0.42813  -0.00002   0.43496  -0.00010   0.00048
   6 2   C  1S          0.00155  -0.00029   0.00047   0.00000  -0.00668
   7        2S         -0.00550   0.00095  -0.00196  -0.00000   0.02692
   8        2PX        -0.01497   0.00230  -0.00250  -0.00010  -0.03769
   9        2PY        -0.00163   0.00067  -0.00015   0.00000   0.08002
  10        2PZ        -0.33786   0.46121   0.08966  -0.00732   0.00027
  11 3   C  1S         -0.00107   0.00033  -0.00064  -0.00002   0.00859
  12        2S          0.00429  -0.00188   0.00301   0.00012  -0.03529
  13        2PX         0.01252   0.00025   0.00079  -0.00001   0.05366
  14        2PY         0.00594  -0.00183   0.00084   0.00009   0.00026
  15        2PZ        -0.05684   0.45669  -0.35884  -0.02743  -0.00142
  16 4   C  1S          0.00439  -0.00000   0.00377  -0.00000   0.00511
  17        2S         -0.01600   0.00001  -0.01008   0.00001  -0.02433
  18        2PX        -0.04032  -0.00001  -0.01401   0.00000   0.01287
  19        2PY         0.00007   0.00003   0.00002   0.00006   0.00000
  20        2PZ         0.30509  -0.00001  -0.25265   0.00006  -0.00042
  21 5   C  1S         -0.00109  -0.00033  -0.00066   0.00002   0.00859
  22        2S          0.00435   0.00186   0.00307  -0.00013  -0.03529
  23        2PX         0.01260  -0.00027   0.00082   0.00001   0.05366
  24        2PY        -0.00607  -0.00184  -0.00092   0.00009  -0.00026
  25        2PZ        -0.05685  -0.45664  -0.35890   0.02759  -0.00141
  26 6   C  1S          0.00156   0.00029   0.00047  -0.00000  -0.00667
  27        2S         -0.00553  -0.00093  -0.00198   0.00001   0.02690
  28        2PX        -0.01503  -0.00232  -0.00253   0.00010  -0.03769
  29        2PY         0.00175   0.00072   0.00015   0.00001  -0.08000
  30        2PZ        -0.33789  -0.46119   0.08964   0.00726   0.00028
  31 7   H  1S          0.00714  -0.00099   0.00091   0.00004   0.04573
  32 8   H  1S          0.00666   0.00161   0.00149  -0.00007   0.04238
  33 9   H  1S          0.00659  -0.00162   0.00147   0.00007   0.04238
  34 10  H  1S          0.00724   0.00101   0.00094  -0.00005   0.04574
  35 11  N  1S         -0.02238   0.00000  -0.02937   0.00001   0.00146
  36        2S          0.10046  -0.00000   0.14474  -0.00004  -0.00815
  37        2PX         0.06444  -0.00000   0.06573  -0.00001   0.00010
  38        2PY        -0.00021  -0.00356  -0.00022   0.00026  -0.00000
  39        2PZ         0.51172  -0.00004   0.65862  -0.00015   0.00366
  40 12  H  1S         -0.00986  -0.00290  -0.04228   0.00024   0.00329
  41 13  H  1S         -0.00996   0.00289  -0.04225  -0.00022   0.00329
  42 14  N  1S          0.00056  -0.00000   0.00013   0.00000  -0.00464
  43        2S         -0.00288  -0.00000  -0.00066  -0.00000   0.01976
  44        2PX        -0.00563  -0.00000  -0.00074  -0.00000  -0.01966
  45        2PY         0.00001   0.00006   0.00000   0.00003  -0.00001
  46        2PZ         0.12502   0.00000  -0.02299   0.00004  -0.00005
  47 15  O  1S          0.00038   0.00002   0.00002   0.00002   0.00321
  48        2S         -0.00180  -0.00011  -0.00010  -0.00009  -0.01138
  49        2PX        -0.00137   0.00023  -0.00212  -0.00036   0.64523
  50        2PY        -0.00228   0.00007  -0.00073  -0.00020   0.12859
  51        2PZ         0.12120  -0.02515  -0.12980  -0.71048  -0.00091
  52 16  O  1S          0.00038  -0.00002   0.00002  -0.00002   0.00321
  53        2S         -0.00181   0.00010  -0.00010   0.00009  -0.01140
  54        2PX        -0.00138  -0.00021  -0.00211   0.00032   0.64511
  55        2PY         0.00233   0.00008   0.00065  -0.00005  -0.12844
  56        2PZ         0.12118   0.02516  -0.12946   0.71058  -0.00085
                          36        37        38        39        40
                           O         V         V         V         V
     Eigenvalues --    -0.06195   0.03218   0.05838   0.10010   0.21099
   1 1   C  1S          0.00001  -0.00020   0.00000  -0.00037  -0.00384
   2        2S         -0.00003   0.00113  -0.00002   0.00205   0.02077
   3        2PX         0.00004   0.00005   0.00001   0.00041  -0.01371
   4        2PY         0.00026   0.00001  -0.00060   0.00003  -0.00001
   5        2PZ        -0.00002  -0.37662   0.00001  -0.47130   0.56222
   6 2   C  1S          0.01365  -0.00030  -0.00012  -0.00046  -0.00023
   7        2S         -0.06365   0.00131   0.00065   0.00227   0.00166
   8        2PX         0.03674   0.00266  -0.00081   0.00267  -0.00431
   9        2PY        -0.00001  -0.00056  -0.00011  -0.00108  -0.00725
  10        2PZ         0.00005   0.32958  -0.56965   0.12305  -0.51164
  11 3   C  1S         -0.00638   0.00015   0.00086   0.00031  -0.00114
  12        2S          0.02839  -0.00093  -0.00507  -0.00203   0.00561
  13        2PX        -0.03012   0.00028   0.00003   0.00139   0.00020
  14        2PY         0.00308  -0.00301  -0.00275  -0.00525  -0.01231
  15        2PZ         0.00029   0.09052   0.57248   0.29913   0.48345
  16 4   C  1S          0.00000  -0.00057   0.00000  -0.00195  -0.00346
  17        2S         -0.00000   0.00752  -0.00001   0.01535   0.02459
  18        2PX         0.00000   0.00715  -0.00001   0.01209   0.01012
  19        2PY         0.01203  -0.00001  -0.00438  -0.00001  -0.00001
  20        2PZ         0.00002  -0.43991   0.00004  -0.54278  -0.49358
  21 5   C  1S          0.00638   0.00015  -0.00086   0.00030  -0.00115
  22        2S         -0.02840  -0.00090   0.00504  -0.00198   0.00568
  23        2PX         0.03013   0.00031  -0.00007   0.00142   0.00024
  24        2PY         0.00308   0.00298  -0.00277   0.00523   0.01232
  25        2PZ        -0.00028   0.09047  -0.57246   0.29914   0.48346
  26 6   C  1S         -0.01365  -0.00030   0.00012  -0.00045  -0.00023
  27        2S          0.06365   0.00131  -0.00067   0.00224   0.00167
  28        2PX        -0.03674   0.00266   0.00084   0.00267  -0.00436
  29        2PY        -0.00003   0.00051  -0.00018   0.00109   0.00733
  30        2PZ        -0.00008   0.32967   0.56958   0.12307  -0.51165
  31 7   H  1S          0.00515  -0.00123  -0.00099  -0.00233  -0.01220
  32 8   H  1S         -0.00839  -0.00114   0.00192  -0.00220  -0.00991
  33 9   H  1S          0.00840  -0.00113  -0.00187  -0.00222  -0.00998
  34 10  H  1S         -0.00514  -0.00122   0.00103  -0.00232  -0.01225
  35 11  N  1S          0.00000  -0.01340  -0.00000  -0.01408  -0.01728
  36        2S         -0.00000   0.07498   0.00002   0.08387   0.11286
  37        2PX        -0.00000   0.04083  -0.00001   0.05303   0.07637
  38        2PY        -0.00188  -0.00010  -0.01025  -0.00011  -0.00011
  39        2PZ        -0.00002   0.27241  -0.00004   0.24628   0.14693
  40 12  H  1S          0.00429  -0.03894  -0.00923  -0.05312  -0.08738
  41 13  H  1S         -0.00429  -0.03886   0.00921  -0.05301  -0.08723
  42 14  N  1S         -0.00000   0.00002  -0.00000   0.00000   0.00357
  43        2S          0.00000  -0.00011   0.00002  -0.00006  -0.02220
  44        2PX         0.00001  -0.00026   0.00002   0.00030  -0.01404
  45        2PY        -0.01024  -0.00004  -0.00003   0.00006  -0.00003
  46        2PZ         0.00000  -0.41926   0.00002   0.54934  -0.22597
  47 15  O  1S         -0.00017  -0.00003   0.00000  -0.00002  -0.00054
  48        2S          0.00443   0.00013  -0.00000   0.00011   0.00321
  49        2PX        -0.50863   0.00060   0.00002   0.00014   0.00816
  50        2PY        -0.50864   0.00023  -0.00010   0.00005  -0.00344
  51        2PZ         0.00037   0.47253  -0.01483  -0.41001   0.11382
  52 16  O  1S          0.00017  -0.00003  -0.00000  -0.00002  -0.00054
  53        2S         -0.00442   0.00013  -0.00000   0.00012   0.00320
  54        2PX         0.50880   0.00062  -0.00004   0.00017   0.00814
  55        2PY        -0.50870  -0.00014  -0.00011  -0.00012   0.00345
  56        2PZ        -0.00027   0.47253   0.01478  -0.40999   0.11382
                          41        42        43        44        45
                           V         V         V         V         V
     Eigenvalues --     0.23679   0.28352   0.30776   0.32783   0.37192
   1 1   C  1S          0.12008  -0.01435   0.00003   0.04175  -0.00050
   2        2S         -0.66063   0.07368  -0.00015  -0.23923   0.00300
   3        2PX         0.67185  -0.12827   0.00003   0.25651   0.00059
   4        2PY         0.00000   0.00003   0.26456  -0.00015  -0.33821
   5        2PZ         0.01583  -0.01667  -0.00001  -0.01549   0.00000
   6 2   C  1S          0.00343   0.04451   0.02957  -0.03611   0.04657
   7        2S         -0.03233  -0.26144  -0.17736   0.22393  -0.28065
   8        2PX         0.13324  -0.10969   0.00237  -0.03849  -0.18084
   9        2PY         0.21668   0.08759   0.36877  -0.05609  -0.30604
  10        2PZ        -0.01670   0.01962  -0.00350   0.01868  -0.00321
  11 3   C  1S          0.04112  -0.00476  -0.01557  -0.07226  -0.10765
  12        2S         -0.23614   0.01644   0.08953   0.43534   0.67266
  13        2PX         0.09422  -0.18424  -0.01697   0.37516   0.07362
  14        2PY         0.13647   0.14732   0.48555  -0.19642  -0.12992
  15        2PZ         0.01764  -0.02896   0.00807  -0.03757   0.00970
  16 4   C  1S          0.02071   0.07965   0.00002   0.01838  -0.00003
  17        2S         -0.12441  -0.44728  -0.00010  -0.09331   0.00023
  18        2PX        -0.00646  -0.50665   0.00019   0.31168   0.00060
  19        2PY         0.00001   0.00005   0.46846  -0.00017   0.29609
  20        2PZ        -0.02505   0.04508  -0.00002   0.08310  -0.00006
  21 5   C  1S          0.04113  -0.00475   0.01551  -0.07226   0.10743
  22        2S         -0.23617   0.01641  -0.08918   0.43531  -0.67142
  23        2PX         0.09424  -0.18432   0.01734   0.37522  -0.07340
  24        2PY        -0.13648  -0.14732   0.48562   0.19613  -0.12922
  25        2PZ         0.01768  -0.02890  -0.00809  -0.03760  -0.00960
  26 6   C  1S          0.00343   0.04451  -0.02961  -0.03610  -0.04570
  27        2S         -0.03230  -0.26148   0.17764   0.22391   0.27537
  28        2PX         0.13321  -0.10972  -0.00233  -0.03842   0.18356
  29        2PY        -0.21670  -0.08753   0.36872   0.05570  -0.30610
  30        2PZ        -0.01678   0.01959   0.00358   0.01870   0.00312
  31 7   H  1S          0.35192   0.17004   0.44799  -0.16815  -0.18131
  32 8   H  1S          0.23338   0.28425   0.37756  -0.55132  -0.50258
  33 9   H  1S          0.23341   0.28430  -0.37798  -0.55104   0.50109
  34 10  H  1S          0.35191   0.17000  -0.44809  -0.16775   0.18540
  35 11  N  1S         -0.00030  -0.18388  -0.00002  -0.06379   0.00006
  36        2S         -0.00063   1.23318   0.00011   0.45225  -0.00041
  37        2PX        -0.08274  -0.05612   0.00021   0.57192   0.00044
  38        2PY        -0.00001   0.00013   0.49265  -0.00010   0.62838
  39        2PZ         0.01632  -0.23560   0.00018  -0.16138   0.00029
  40 12  H  1S          0.03184  -0.66168   0.46068  -0.50833   0.56850
  41 13  H  1S          0.03185  -0.66177  -0.46099  -0.50804  -0.56845
  42 14  N  1S         -0.13629   0.02118  -0.00001  -0.04927   0.00012
  43        2S          0.85679  -0.13454   0.00010   0.31856  -0.00079
  44        2PX         0.50610  -0.07718   0.00006   0.13296  -0.00038
  45        2PY        -0.00004   0.00002   0.07962  -0.00008  -0.17741
  46        2PZ        -0.00704   0.00530  -0.00001   0.00389   0.00003
  47 15  O  1S          0.02064  -0.00183   0.00424   0.00818  -0.01249
  48        2S         -0.12567   0.01302  -0.03130  -0.05311   0.08447
  49        2PX        -0.28053   0.02783  -0.04120  -0.07398   0.10430
  50        2PY         0.14730  -0.03069   0.06097   0.08109  -0.09398
  51        2PZ         0.00327  -0.00224  -0.00003  -0.00154  -0.00009
  52 16  O  1S          0.02065  -0.00183  -0.00424   0.00819   0.01246
  53        2S         -0.12571   0.01304   0.03127  -0.05318  -0.08425
  54        2PX        -0.28058   0.02785   0.04114  -0.07407  -0.10394
  55        2PY        -0.14735   0.03071   0.06095  -0.08119  -0.09359
  56        2PZ         0.00331  -0.00224   0.00003  -0.00153   0.00010
                          46        47        48        49        50
                           V         V         V         V         V
     Eigenvalues --     0.37238   0.39250   0.41845   0.45816   0.47536
   1 1   C  1S         -0.13962  -0.07849   0.00001  -0.05219  -0.00003
   2        2S          0.83503   0.49627  -0.00008   0.33630   0.00020
   3        2PX         0.12313   0.25670  -0.00005   0.03578  -0.00002
   4        2PY         0.00092   0.00021  -0.46026  -0.00016   0.40408
   5        2PZ         0.00079  -0.00892  -0.00004   0.00105   0.00004
   6 2   C  1S          0.13420   0.02011   0.13792   0.03284  -0.01459
   7        2S         -0.81337  -0.13505  -0.88041  -0.21242   0.11060
   8        2PX         0.38408   0.28412   0.04569  -0.09301  -0.16845
   9        2PY         0.07183  -0.20521   0.18413  -0.12314   0.36530
  10        2PZ        -0.00237   0.01066   0.00178  -0.00144   0.00032
  11 3   C  1S         -0.06288   0.11408  -0.07322  -0.01672  -0.07685
  12        2S          0.37012  -0.70776   0.45320   0.10751   0.50811
  13        2PX         0.09728  -0.20478  -0.24847  -0.12883   0.25486
  14        2PY        -0.04294  -0.27880  -0.06397  -0.14126  -0.28115
  15        2PZ         0.00297  -0.02787  -0.00223   0.00565   0.00016
  16 4   C  1S          0.04140  -0.20538   0.00002  -0.00480  -0.00000
  17        2S         -0.24615   1.27224  -0.00015   0.04023   0.00003
  18        2PX         0.21364  -0.00687  -0.00013  -0.24035  -0.00006
  19        2PY        -0.00092  -0.00018   0.16618  -0.00034   0.36436
  20        2PZ        -0.00285   0.06404   0.00003  -0.01607   0.00000
  21 5   C  1S         -0.06352   0.11394   0.07320  -0.01690   0.07680
  22        2S          0.37413  -0.70691  -0.45309   0.10867  -0.50780
  23        2PX         0.09786  -0.20456   0.24845  -0.12857  -0.25501
  24        2PY         0.04374   0.27903  -0.06401   0.14177  -0.28094
  25        2PZ         0.00302  -0.02783   0.00219   0.00565  -0.00014
  26 6   C  1S          0.13444   0.02014  -0.13795   0.03289   0.01464
  27        2S         -0.81479  -0.13520   0.88060  -0.21267  -0.11092
  28        2PX         0.38295   0.28386  -0.04589  -0.09336   0.16831
  29        2PY        -0.06998   0.20577   0.18419   0.12264   0.36535
  30        2PZ        -0.00243   0.01067  -0.00173  -0.00142  -0.00031
  31 7   H  1S          0.66769   0.02069   0.56889  -0.04087   0.15759
  32 8   H  1S         -0.29888   0.23316  -0.14942  -0.10056  -0.49933
  33 9   H  1S         -0.30196   0.23240   0.14942  -0.10152   0.49906
  34 10  H  1S          0.66645   0.02019  -0.56914  -0.04051  -0.15759
  35 11  N  1S          0.01432   0.01290  -0.00001  -0.00491   0.00000
  36        2S         -0.10213  -0.06041   0.00007   0.03021  -0.00002
  37        2PX         0.00577   0.65630  -0.00016  -0.18799  -0.00006
  38        2PY        -0.00200  -0.00048  -0.47632   0.00028  -0.23169
  39        2PZ         0.01965  -0.07573  -0.00015   0.01779  -0.00004
  40 12  H  1S          0.05258  -0.27153  -0.35523   0.07782  -0.14277
  41 13  H  1S          0.05616  -0.27064   0.35532   0.07746   0.14287
  42 14  N  1S          0.04036   0.00014  -0.00002  -0.12835  -0.00012
  43        2S         -0.26196   0.00042   0.00013   0.86271   0.00083
  44        2PX        -0.10687  -0.00920  -0.00014  -0.80957  -0.00074
  45        2PY         0.00053   0.00014  -0.30958  -0.00061   0.69621
  46        2PZ        -0.00006   0.00207   0.00005   0.00025  -0.00008
  47 15  O  1S         -0.00556  -0.00069  -0.02381   0.06786   0.04412
  48        2S          0.03816   0.00276   0.15804  -0.46020  -0.30806
  49        2PX         0.05325   0.01113   0.18106  -0.13418  -0.30811
  50        2PY        -0.07479   0.00699  -0.13196   0.67739   0.32335
  51        2PZ         0.00003  -0.00075  -0.00006   0.00001   0.00010
  52 16  O  1S         -0.00563  -0.00071   0.02383   0.06793  -0.04399
  53        2S          0.03865   0.00289  -0.15818  -0.46070   0.30718
  54        2PX         0.05385   0.01128  -0.18109  -0.13471   0.30783
  55        2PY         0.07537  -0.00683  -0.13219  -0.67794   0.32211
  56        2PZ         0.00003  -0.00075   0.00008   0.00014  -0.00015
                          51        52        53        54        55
                           V         V         V         V         V
     Eigenvalues --     0.50759   0.53891   0.54922   0.58438   0.69721
   1 1   C  1S          0.04433  -0.00014   0.08820   0.00003   0.00004
   2        2S         -0.31192   0.00095  -0.61722  -0.00020  -0.00027
   3        2PX        -0.68547   0.00009  -0.08393  -0.00017  -0.00041
   4        2PY         0.00000   0.12390   0.00022  -0.59580   0.83620
   5        2PZ        -0.00100   0.00001  -0.00083   0.00000   0.00003
   6 2   C  1S         -0.03461   0.00963   0.05226   0.07946  -0.00637
   7        2S          0.22975  -0.06846  -0.36779  -0.56734   0.04418
   8        2PX         0.11845  -0.59735  -0.58435  -0.07240  -0.64116
   9        2PY         0.38815  -0.34528   0.47076  -0.18518   0.39780
  10        2PZ         0.00357   0.00260   0.00318   0.00064   0.00229
  11 3   C  1S          0.01018  -0.07303  -0.05591   0.01970  -0.00982
  12        2S         -0.06690   0.50910   0.39226  -0.14275   0.07965
  13        2PX         0.04515  -0.29738  -0.59871  -0.53875  -0.56900
  14        2PY         0.42339   0.49553  -0.38413  -0.09141  -0.34934
  15        2PZ        -0.01171  -0.00003  -0.00044   0.00117   0.00149
  16 4   C  1S          0.00265   0.00014  -0.08968   0.00000  -0.00002
  17        2S         -0.04404  -0.00095   0.61727  -0.00001   0.00017
  18        2PX         0.82426  -0.00027   0.11585   0.00014  -0.00043
  19        2PY         0.00008   0.56765   0.00091  -0.61528  -0.63424
  20        2PZ         0.04049   0.00002   0.00916  -0.00001  -0.00002
  21 5   C  1S          0.01018   0.07321  -0.05568  -0.01971   0.00990
  22        2S         -0.06691  -0.51038   0.39063   0.14280  -0.08023
  23        2PX         0.04498   0.29915  -0.59779   0.53865   0.56952
  24        2PY        -0.42338   0.49433   0.38572  -0.09156  -0.34871
  25        2PZ        -0.01169   0.00000  -0.00042  -0.00118  -0.00151
  26 6   C  1S         -0.03459  -0.00979   0.05223  -0.07948   0.00629
  27        2S          0.22961   0.06955  -0.36756   0.56746  -0.04359
  28        2PX         0.11837   0.59911  -0.58251   0.07227   0.64169
  29        2PY        -0.38827  -0.34389  -0.47176  -0.18546   0.39707
  30        2PZ         0.00353  -0.00266   0.00315  -0.00068  -0.00229
  31 7   H  1S          0.20193  -0.42062   0.22218   0.05796  -0.00093
  32 8   H  1S          0.30200   0.25845  -0.17602   0.16692  -0.04298
  33 9   H  1S          0.30207  -0.25783  -0.17685  -0.16675   0.04269
  34 10  H  1S          0.20204   0.41996   0.22347  -0.05789   0.00127
  35 11  N  1S          0.03493  -0.00006   0.03392   0.00001  -0.00002
  36        2S         -0.24077   0.00041  -0.24137  -0.00004   0.00014
  37        2PX         0.55526  -0.00038   0.20819   0.00009  -0.00016
  38        2PY        -0.00005  -0.44347  -0.00071   0.27314   0.21421
  39        2PZ        -0.02481  -0.00014   0.01679   0.00006   0.00004
  40 12  H  1S         -0.14999  -0.29168   0.03363   0.16955   0.12702
  41 13  H  1S         -0.14991   0.29160   0.03455  -0.16960  -0.12700
  42 14  N  1S         -0.00543   0.00000  -0.00468  -0.00002   0.00002
  43        2S          0.03354  -0.00000   0.03264   0.00015  -0.00012
  44        2PX        -0.44480  -0.00031   0.15400  -0.00016  -0.00008
  45        2PY        -0.00029   0.11741   0.00007   0.80548  -0.38398
  46        2PZ         0.00082  -0.00001   0.00002  -0.00007   0.00002
  47 15  O  1S          0.01979   0.00796  -0.00208   0.04627  -0.02094
  48        2S         -0.13573  -0.05545   0.02000  -0.33236   0.15226
  49        2PX        -0.00215  -0.04898  -0.02831  -0.28552   0.11988
  50        2PY         0.19176   0.04517  -0.05977   0.33517  -0.14188
  51        2PZ        -0.00020   0.00002  -0.00000   0.00007  -0.00002
  52 16  O  1S          0.01982  -0.00795  -0.00209  -0.04625   0.02094
  53        2S         -0.13597   0.05533   0.02007   0.33217  -0.15224
  54        2PX        -0.00239   0.04905  -0.02825   0.28545  -0.11984
  55        2PY        -0.19201   0.04489   0.05981   0.33495  -0.14186
  56        2PZ        -0.00016  -0.00003  -0.00001  -0.00013   0.00005
                          56
                           V
     Eigenvalues --     0.72466
   1 1   C  1S         -0.06646
   2        2S          0.49490
   3        2PX         0.62001
   4        2PY         0.00057
   5        2PZ        -0.00167
   6 2   C  1S          0.06850
   7        2S         -0.50471
   8        2PX        -0.37768
   9        2PY        -0.55931
  10        2PZ         0.00196
  11 3   C  1S         -0.06421
  12        2S          0.47269
  13        2PX        -0.39104
  14        2PY         0.54582
  15        2PZ        -0.00017
  16 4   C  1S          0.04620
  17        2S         -0.34657
  18        2PX         0.69364
  19        2PY        -0.00039
  20        2PZ         0.01358
  21 5   C  1S         -0.06419
  22        2S          0.47257
  23        2PX        -0.39027
  24        2PY        -0.54620
  25        2PZ        -0.00016
  26 6   C  1S          0.06850
  27        2S         -0.50475
  28        2PX        -0.37680
  29        2PY         0.55988
  30        2PZ         0.00202
  31 7   H  1S         -0.25431
  32 8   H  1S          0.26211
  33 9   H  1S          0.26210
  34 10  H  1S         -0.25434
  35 11  N  1S          0.02603
  36        2S         -0.20018
  37        2PX         0.24634
  38        2PY         0.00012
  39        2PZ         0.00571
  40 12  H  1S         -0.02530
  41 13  H  1S         -0.02543
  42 14  N  1S         -0.01517
  43        2S          0.11241
  44        2PX         0.15608
  45        2PY        -0.00021
  46        2PZ        -0.00007
  47 15  O  1S         -0.00228
  48        2S          0.01674
  49        2PX        -0.01474
  50        2PY        -0.01901
  51        2PZ         0.00000
  52 16  O  1S         -0.00226
  53        2S          0.01658
  54        2PX        -0.01486
  55        2PY         0.01885
  56        2PZ        -0.00000
     Density Matrix:
                           1         2         3         4         5
   1 1   C  1S          2.06681
   2        2S         -0.21401   0.90394
   3        2PX        -0.00256  -0.03366   0.53735
   4        2PY        -0.00000  -0.00000  -0.00000   0.61672
   5        2PZ         0.00001   0.00008   0.00083  -0.00001   0.88465
   6 2   C  1S          0.02648  -0.07032  -0.04947   0.09919  -0.00007
   7        2S         -0.07071   0.09870   0.11625  -0.24217   0.00037
   8        2PX         0.06370  -0.16426  -0.06654   0.21780   0.00235
   9        2PY        -0.09921   0.24602   0.21082  -0.34520  -0.00054
  10        2PZ        -0.00024   0.00073   0.00129  -0.00090   0.47284
  11 3   C  1S         -0.00517   0.01591   0.01423  -0.01291  -0.00011
  12        2S          0.01562  -0.03639  -0.05786   0.03862   0.00066
  13        2PX        -0.02517   0.08919   0.04837  -0.05674  -0.00121
  14        2PY         0.01111  -0.05101  -0.00745   0.03530  -0.00124
  15        2PZ         0.00015  -0.00054  -0.00077   0.00004  -0.14404
  16 4   C  1S         -0.00445   0.01500   0.01559  -0.00000   0.00054
  17        2S          0.01557  -0.05123  -0.06213   0.00001   0.00082
  18        2PX        -0.01312   0.04707   0.04524  -0.00000   0.00237
  19        2PY        -0.00000   0.00000   0.00001  -0.06303  -0.00001
  20        2PZ         0.00014  -0.00061  -0.00100   0.00002  -0.30261
  21 5   C  1S         -0.00517   0.01592   0.01423   0.01291  -0.00012
  22        2S          0.01562  -0.03639  -0.05786  -0.03861   0.00068
  23        2PX        -0.02517   0.08921   0.04837   0.05674  -0.00120
  24        2PY        -0.01111   0.05102   0.00745   0.03530   0.00122
  25        2PZ         0.00015  -0.00054  -0.00076  -0.00002  -0.14406
  26 6   C  1S          0.02649  -0.07032  -0.04947  -0.09920  -0.00007
  27        2S         -0.07071   0.09869   0.11624   0.24216   0.00038
  28        2PX         0.06371  -0.16428  -0.06654  -0.21782   0.00235
  29        2PY         0.09921  -0.24602  -0.21081  -0.34519   0.00046
  30        2PZ        -0.00024   0.00073   0.00129   0.00085   0.47289
  31 7   H  1S          0.02662  -0.10365  -0.01436   0.12723  -0.00046
  32 8   H  1S         -0.01966   0.07371   0.04918  -0.08856  -0.00065
  33 9   H  1S         -0.01966   0.07372   0.04917   0.08855  -0.00063
  34 10  H  1S          0.02662  -0.10364  -0.01435  -0.12722  -0.00046
  35 11  N  1S         -0.00026   0.00140  -0.00149   0.00000  -0.01161
  36        2S          0.00247  -0.01081   0.00316  -0.00001   0.06146
  37        2PX         0.00200  -0.00628  -0.01780   0.00000   0.02716
  38        2PY         0.00000  -0.00000  -0.00000  -0.00478  -0.00008
  39        2PZ        -0.00042   0.00147   0.00002  -0.00002   0.25966
  40 12  H  1S         -0.00035   0.00060  -0.00041  -0.00775  -0.02521
  41 13  H  1S         -0.00035   0.00060  -0.00041   0.00776  -0.02517
  42 14  N  1S          0.01412  -0.02651   0.07354   0.00000  -0.00017
  43        2S         -0.04106   0.01192  -0.23285  -0.00001   0.00069
  44        2PX        -0.08384   0.18627  -0.40068  -0.00001   0.00109
  45        2PY        -0.00000   0.00000  -0.00000   0.00801   0.00001
  46        2PZ         0.00008  -0.00014   0.00057  -0.00000   0.11412
  47 15  O  1S         -0.00202   0.00370  -0.00625   0.01197  -0.00001
  48        2S          0.00569  -0.00035   0.01832  -0.05091   0.00008
  49        2PX         0.07532  -0.35226   0.36569  -0.00055  -0.00064
  50        2PY         0.00005  -0.02089  -0.01320   0.04473   0.00003
  51        2PZ        -0.00004   0.00021  -0.00056  -0.00003  -0.12641
  52 16  O  1S         -0.00202   0.00369  -0.00625  -0.01197  -0.00001
  53        2S          0.00569  -0.00035   0.01831   0.05091   0.00006
  54        2PX         0.07532  -0.35225   0.36569   0.00057  -0.00064
  55        2PY        -0.00004   0.02087   0.01321   0.04473  -0.00007
  56        2PZ        -0.00004   0.00021  -0.00056   0.00002  -0.12640
                           6         7         8         9        10
   6 2   C  1S          2.06600
   7        2S         -0.19952   0.81995
   8        2PX         0.00263  -0.01969   0.60584
   9        2PY         0.00729  -0.03835   0.01965   0.62207
  10        2PZ        -0.00014   0.00070   0.00149   0.00002   0.77898
  11 3   C  1S          0.02672  -0.07033  -0.11992  -0.00227   0.00087
  12        2S         -0.06979   0.09038   0.29713   0.01389  -0.00335
  13        2PX         0.11820  -0.29138  -0.45587   0.00250   0.00260
  14        2PY        -0.00330   0.01809   0.00554   0.02658  -0.00172
  15        2PZ        -0.00051   0.00142   0.00291  -0.00040   0.53606
  16 4   C  1S         -0.00520   0.01596   0.02468   0.01131  -0.00089
  17        2S          0.01710  -0.04308  -0.09290  -0.05190   0.00349
  18        2PX        -0.01453   0.05412   0.05286   0.01753   0.00277
  19        2PY        -0.01300   0.03751   0.05785   0.03977  -0.00103
  20        2PZ         0.00038  -0.00214  -0.00138   0.00065  -0.03607
  21 5   C  1S         -0.00395   0.01319   0.00563   0.01132  -0.00026
  22        2S          0.01304  -0.04230  -0.02063  -0.04208   0.00140
  23        2PX        -0.00495   0.01839  -0.02202   0.03909  -0.00029
  24        2PY        -0.01053   0.03873   0.03752   0.01762  -0.00077
  25        2PZ         0.00032  -0.00113  -0.00218  -0.00035  -0.30721
  26 6   C  1S         -0.00548   0.01782  -0.00197   0.02384   0.00001
  27        2S          0.01782  -0.04930  -0.00092  -0.08848   0.00007
  28        2PX        -0.00197  -0.00093   0.00801   0.02512  -0.00036
  29        2PY        -0.02384   0.08848  -0.02513   0.09033   0.00018
  30        2PZ         0.00001   0.00007  -0.00036  -0.00017  -0.07205
  31 7   H  1S         -0.11411   0.29198  -0.26775  -0.46951  -0.00002
  32 8   H  1S          0.02809  -0.10343  -0.10350   0.06195   0.00116
  33 9   H  1S         -0.00266   0.01030   0.01129   0.00540  -0.00148
  34 10  H  1S         -0.01787   0.06794  -0.04058   0.08768   0.00022
  35 11  N  1S          0.00293  -0.00966  -0.01467  -0.00117   0.00330
  36        2S         -0.01347   0.04252   0.07322   0.00586  -0.01468
  37        2PX         0.01360  -0.05134  -0.06855  -0.00577  -0.00376
  38        2PY         0.00413  -0.01868  -0.01501   0.00459  -0.00307
  39        2PZ         0.00219  -0.00833  -0.01203   0.00044  -0.07455
  40 12  H  1S         -0.00128   0.00371   0.00028   0.00801  -0.00106
  41 13  H  1S          0.00865  -0.03261  -0.04218  -0.00611   0.00486
  42 14  N  1S         -0.00429   0.01300  -0.02100   0.00868   0.00002
  43        2S          0.01863  -0.05116   0.09966  -0.03978  -0.00007
  44        2PX         0.02319  -0.08079   0.09340  -0.04198  -0.00013
  45        2PY        -0.01028   0.04099  -0.01874   0.02221   0.00004
  46        2PZ        -0.00001  -0.00002  -0.00043   0.00015  -0.04900
  47 15  O  1S          0.00040   0.00132   0.00351  -0.00179   0.00000
  48        2S         -0.00019  -0.01326  -0.01346   0.00654  -0.00001
  49        2PX        -0.02385   0.10969  -0.05376   0.10180   0.00010
  50        2PY         0.00087   0.01244   0.01875  -0.02136  -0.00013
  51        2PZ         0.00004  -0.00014  -0.00041  -0.00006  -0.11223
  52 16  O  1S         -0.00135   0.00374  -0.00233  -0.00609   0.00000
  53        2S          0.00469  -0.01135   0.00873   0.02874  -0.00001
  54        2PX         0.01164  -0.05353   0.01959   0.04597  -0.00005
  55        2PY        -0.00726   0.04381  -0.00648  -0.04183  -0.00002
  56        2PZ         0.00001  -0.00000  -0.00044  -0.00002  -0.08654
                          11        12        13        14        15
  11 3   C  1S          2.06491
  12        2S         -0.19559   0.80448
  13        2PX        -0.00220   0.01678   0.59851
  14        2PY         0.00681  -0.03395  -0.02130   0.58671
  15        2PZ         0.00072  -0.00330   0.00069   0.00118   0.87080
  16 4   C  1S          0.02555  -0.06791  -0.06015  -0.09889  -0.00063
  17        2S         -0.06956   0.10118   0.15543   0.26287  -0.00100
  18        2PX         0.05205  -0.12021  -0.08517  -0.19402  -0.00490
  19        2PY         0.09988  -0.24778  -0.22346  -0.34361  -0.00058
  20        2PZ         0.00006   0.00045   0.00047   0.00093   0.43833
  21 5   C  1S         -0.00540   0.01793   0.00217   0.02371  -0.00027
  22        2S          0.01793  -0.05042  -0.00093  -0.09039   0.00104
  23        2PX         0.00217  -0.00093   0.00814  -0.02472   0.00168
  24        2PY        -0.02371   0.09038   0.02471   0.08944  -0.00194
  25        2PZ        -0.00027   0.00108   0.00170   0.00197   0.03360
  26 6   C  1S         -0.00395   0.01303  -0.00495   0.01053   0.00032
  27        2S          0.01318  -0.04229   0.01838  -0.03873  -0.00111
  28        2PX         0.00563  -0.02063  -0.02202  -0.03752  -0.00219
  29        2PY        -0.01131   0.04206  -0.03908   0.01762   0.00038
  30        2PZ        -0.00027   0.00142  -0.00027   0.00078  -0.30721
  31 7   H  1S          0.02817  -0.10316   0.10047   0.05273   0.00036
  32 8   H  1S         -0.11514   0.28978   0.27142  -0.47436  -0.00006
  33 9   H  1S         -0.01737   0.06515   0.04161   0.08254   0.00022
  34 10  H  1S         -0.00217   0.00707  -0.00809   0.00474   0.00090
  35 11  N  1S         -0.00525   0.01667   0.02335   0.00631   0.01377
  36        2S          0.02201  -0.06362  -0.10786  -0.02401  -0.07415
  37        2PX        -0.01948   0.06919   0.07327   0.06029  -0.02891
  38        2PY        -0.01645   0.07014   0.03438   0.01728  -0.00326
  39        2PZ        -0.00278   0.01008   0.01079   0.00291  -0.32188
  40 12  H  1S          0.01212  -0.04638  -0.02815  -0.04159   0.02820
  41 13  H  1S         -0.02240   0.08332   0.07202   0.06696   0.03354
  42 14  N  1S          0.00255  -0.00805   0.01315  -0.00160  -0.00004
  43        2S         -0.01206   0.03643  -0.06666   0.00855   0.00022
  44        2PX        -0.01507   0.05542  -0.07791   0.00461   0.00021
  45        2PY         0.00219  -0.00997   0.00681   0.00327  -0.00005
  46        2PZ        -0.00003   0.00015  -0.00002   0.00015  -0.03503
  47 15  O  1S         -0.00011  -0.00050  -0.00044   0.00096   0.00002
[...]
  54        2PX         0.00000  -0.00000   0.00000   0.00183   0.00000
  55        2PY         0.00000   0.00003  -0.00472  -0.00000  -0.02881
  56        2PZ         0.09274  -0.00000   0.00000  -0.00000  -0.00000
                          51        52        53        54        55
  51        2PZ         1.26503
  52 16  O  1S          0.00000   2.11390
  53        2S         -0.00000  -0.11532   2.18519
  54        2PX        -0.00000   0.00000   0.00000   1.56967
  55        2PY        -0.00000   0.00000   0.00000   0.00000   1.04647
  56        2PZ        -0.00853   0.00000   0.00000   0.00000   0.00000
                          56
  56        2PZ         1.26505
     Gross orbital populations:
                           1
   1 1   C  1S          1.99043
   2        2S          1.12717
   3        2PX         0.79694
   4        2PY         0.95963
   5        2PZ         1.08733
   6 2   C  1S          1.99028
   7        2S          1.15456
   8        2PX         0.96302
   9        2PY         0.97785
  10        2PZ         0.98942
  11 3   C  1S          1.99018
  12        2S          1.14087
  13        2PX         0.95184
  14        2PY         0.94513
  15        2PZ         1.06678
  16 4   C  1S          1.99022
  17        2S          1.10588
  18        2PX         0.82638
  19        2PY         0.98445
  20        2PZ         1.00112
  21 5   C  1S          1.99018
  22        2S          1.14087
  23        2PX         0.95183
  24        2PY         0.94513
  25        2PZ         1.06680
  26 6   C  1S          1.99028
  27        2S          1.15455
  28        2PX         0.96303
  29        2PY         0.97785
  30        2PZ         0.98943
  31 7   H  1S          0.90432
  32 8   H  1S          0.92618
  33 9   H  1S          0.92619
  34 10  H  1S          0.90431
  35 11  N  1S          1.99328
  36        2S          1.45007
  37        2PX         1.09944
  38        2PY         1.12417
  39        2PZ         1.71803
  40 12  H  1S          0.77626
  41 13  H  1S          0.77626
  42 14  N  1S          1.99398
  43        2S          1.37120
  44        2PX         1.14797
  45        2PY         1.02260
  46        2PZ         1.34577
  47 15  O  1S          1.99824
  48        2S          1.89717
  49        2PX         1.64985
  50        2PY         1.26300
  51        2PZ         1.34700
  52 16  O  1S          1.99824
  53        2S          1.89719
  54        2PX         1.64985
  55        2PY         1.26298
  56        2PZ         1.34701
          Condensed to atoms (all electrons):
               1          2          3          4          5          6
     1  C    4.903166   0.494802  -0.029787  -0.011915  -0.029792   0.494827
     2  C    0.494802   4.793733   0.517614  -0.027376  -0.010681  -0.030024
     3  C   -0.029787   0.517614   4.828255   0.484355  -0.027629  -0.010679
     4  C   -0.011915  -0.027376   0.484355   4.700748   0.484378  -0.027372
     5  C   -0.029792  -0.010681  -0.027629   0.484378   4.828270   0.517588
     6  C    0.494827  -0.030024  -0.010679  -0.027372   0.517588   4.793730
     7  H   -0.024997   0.383861  -0.023922   0.001386   0.000038   0.001347
     8  H    0.001496  -0.025361   0.386832  -0.024700   0.001262   0.000051
     9  H    0.001496   0.000051   0.001262  -0.024696   0.386824  -0.025366
    10  H   -0.024996   0.001348   0.000038   0.001385  -0.023922   0.383869
    11  N    0.000034   0.000607  -0.030172   0.414638  -0.030172   0.000607
    12  H    0.000001   0.000008  -0.003872  -0.031392   0.002011  -0.000038
    13  H    0.000001  -0.000038   0.002011  -0.031392  -0.003873   0.000008
    14  N    0.272884  -0.021600   0.000506   0.000005   0.000506  -0.021599
    15  O   -0.042858   0.000419  -0.000003  -0.000000  -0.000003  -0.002231
    16  O   -0.042851  -0.002231  -0.000003  -0.000000  -0.000003   0.000419
               7          8          9         10         11         12
     1  C   -0.024997   0.001496   0.001496  -0.024996   0.000034   0.000001
     2  C    0.383861  -0.025361   0.000051   0.001348   0.000607   0.000008
     3  C   -0.023922   0.386832   0.001262   0.000038  -0.030172  -0.003872
     4  C    0.001386  -0.024700  -0.024696   0.001385   0.414638  -0.031392
     5  C    0.000038   0.001262   0.386824  -0.023922  -0.030172   0.002011
     6  C    0.001347   0.000051  -0.025366   0.383869   0.000607  -0.000038
     7  H    0.570616  -0.004253   0.000002  -0.000034  -0.000009  -0.000002
     8  H   -0.004253   0.592249  -0.000036   0.000002  -0.002759   0.001371
     9  H    0.000002  -0.000036   0.592269  -0.004254  -0.002758   0.000035
    10  H   -0.000034   0.000002  -0.004254   0.570605  -0.000009   0.000001
    11  N   -0.000009  -0.002759  -0.002758  -0.000009   6.316957   0.359014
    12  H   -0.000002   0.001371   0.000035   0.000001   0.359014   0.480843
    13  H    0.000001   0.000035   0.001371  -0.000002   0.359012  -0.031723
    14  N   -0.002400  -0.000008  -0.000008  -0.002400   0.000000  -0.000000
    15  O    0.000027   0.000000   0.000001   0.002657   0.000000   0.000000
    16  O    0.002658   0.000001   0.000000   0.000027   0.000000   0.000000
              13         14         15         16
     1  C    0.000001   0.272884  -0.042858  -0.042851
     2  C   -0.000038  -0.021600   0.000419  -0.002231
     3  C    0.002011   0.000506  -0.000003  -0.000003
     4  C   -0.031392   0.000005  -0.000000  -0.000000
     5  C   -0.003873   0.000506  -0.000003  -0.000003
     6  C    0.000008  -0.021599  -0.002231   0.000419
     7  H    0.000001  -0.002400   0.000027   0.002658
     8  H    0.000035  -0.000008   0.000000   0.000001
     9  H    0.001371  -0.000008   0.000001   0.000000
    10  H   -0.000002  -0.002400   0.002657   0.000027
    11  N    0.359012   0.000000   0.000000   0.000000
    12  H   -0.031723  -0.000000   0.000000   0.000000
    13  H    0.480848  -0.000000   0.000000   0.000000
    14  N   -0.000000   6.073616   0.291017   0.291001
    15  O    0.000000   0.291017   7.949628  -0.043389
    16  O    0.000000   0.291001  -0.043389   7.949639
 Mulliken charges:
               1
     1  C    0.038489
     2  C   -0.075130
     3  C   -0.094805
     4  C    0.091948
     5  C   -0.094803
     6  C   -0.075137
     7  H    0.095682
     8  H    0.073819
     9  H    0.073808
    10  H    0.095686
    11  N   -0.384989
    12  H    0.223745
    13  H    0.223741
    14  N    0.118480
    15  O   -0.155266
    16  O   -0.155268
 Sum of Mulliken charges =  -0.00000
 Mulliken charges with hydrogens summed into heavy atoms:
               1
     1  C    0.038489
     2  C    0.020552
     3  C   -0.020986
     4  C    0.091948
     5  C   -0.020995
     6  C    0.020549
    11  N    0.062497
    14  N    0.118480
    15  O   -0.155266
    16  O   -0.155268
 Electronic spatial extent (au):  <R**2>=           1563.6024
 Charge=             -0.0000 electrons
 Dipole moment (field-independent basis, Debye):
    X=              5.6037    Y=              0.0003    Z=             -0.6938  Tot=              5.6465
 Quadrupole moment (field-independent basis, Debye-Ang):
   XX=            -47.3278   YY=            -49.6158   ZZ=            -53.3021
   XY=              0.0005   XZ=             -2.7440   YZ=              0.0013
 Traceless Quadrupole moment (field-independent basis, Debye-Ang):
   XX=              2.7541   YY=              0.4661   ZZ=             -3.2202
   XY=              0.0005   XZ=             -2.7440   YZ=              0.0013
 Octapole moment (field-independent basis, Debye-Ang**2):
  XXX=             69.2440  YYY=              0.0013  ZZZ=             -0.1903  XYY=              8.2376
  XXY=              0.0030  XXZ=            -10.7439  XZZ=            -13.3415  YZZ=             -0.0002
  YYZ=             -0.3419  XYZ=              0.0019
 Hexadecapole moment (field-independent basis, Debye-Ang**3):
 XXXX=          -1188.5591 YYYY=           -331.7714 ZZZZ=            -38.9096 XXXY=              0.0119
 XXXZ=            -41.9451 YYYX=              0.0017 YYYZ=              0.0012 ZZZX=             -1.0390
 ZZZY=             -0.0010 XXYY=           -270.5149 XXZZ=           -234.8903 YYZZ=            -68.5214
 XXYZ=              0.0147 YYXZ=             -1.5198 ZZXY=             -0.0006
 N-N= 4.939926967493D+02 E-N=-2.120856462446D+03  KE= 4.779361221914D+02
 Orbital energies and kinetic energies (alpha):
                                 1                 2
   1         O               -18.515571         28.618653
   2         O               -18.515503         28.621131
   3         O               -14.087381         21.644972
   4         O               -13.885126         21.632861
   5         O                -9.812192         15.578815
   6         O                -9.769765         15.575486
   7         O                -9.756523         15.574075
   8         O                -9.756467         15.577746
   9         O                -9.747965         15.578090
  10         O                -9.747909         15.580535
  11         O                -1.062411          2.169258
  12         O                -0.873320          2.453193
  13         O                -0.814938          1.666886
  14         O                -0.726771          1.478810
  15         O                -0.645843          1.665688
  16         O                -0.633892          1.528210
  17         O                -0.553672          1.734145
  18         O                -0.516860          1.286571
  19         O                -0.468423          1.494744
  20         O                -0.443218          1.298719
  21         O                -0.432743          1.288223
  22         O                -0.390089          1.643622
  23         O                -0.359110          2.545253
  24         O                -0.350953          1.271997
  25         O                -0.348261          1.437567
  26         O                -0.333403          1.164537
  27         O                -0.302444          1.601993
  28         O                -0.297193          2.353565
  29         O                -0.287812          1.213001
  30         O                -0.255138          1.460159
  31         O                -0.213535          1.455650
  32         O                -0.168879          1.320034
  33         O                -0.109139          1.747892
  34         O                -0.104809          2.561899
  35         O                -0.090814          2.497975
  36         O                -0.061948          2.646103
  37         V                 0.032181          2.353202
  38         V                 0.058379          1.827980
  39         V                 0.100095          2.458137
  40         V                 0.210985          2.265635
  41         V                 0.236789          3.122872
  42         V                 0.283524          2.845391
  43         V                 0.307764          2.200034
  44         V                 0.327826          2.522611
  45         V                 0.371916          2.660926
  46         V                 0.372380          2.941322
  47         V                 0.392497          3.493267
  48         V                 0.418447          3.078914
  49         V                 0.458163          4.412784
  50         V                 0.475362          3.365640
  51         V                 0.507590          3.200194
  52         V                 0.538906          3.004281
  53         V                 0.549217          3.293818
  54         V                 0.584377          3.857584
  55         V                 0.697210          3.532843
  56         V                 0.724658          3.670904
 Total kinetic energy from orbitals= 4.779361221914D+02
 Calling FoFJK, ICntrl=  10005527 FMM=F ISym2X=0 I1Cent= 0 IOpClX= 0 NMat=1 NMatS=1 NMatT=0.
 -------------------------------------------------------------------
 Center     Atomic                   Forces (Hartrees/Bohr)
 Number     Number              X              Y              Z
 -------------------------------------------------------------------
      1        6          -0.044763087   -0.000049713    0.000351426
      2        6           0.005037596   -0.046183180   -0.000352750
      3        6          -0.008114486   -0.024468345    0.000554321
      4        6          -0.018593012    0.000002137   -0.002815064
      5        6          -0.008130223    0.024510111    0.000552590
      6        6           0.005085474    0.046190503   -0.000350681
      7        1           0.000751775   -0.000317388   -0.000190279
      8        1           0.002816489   -0.001996443   -0.000013408
      9        1           0.002818773    0.001969555   -0.000007138
     10        1           0.000741222    0.000328766   -0.000194531
     11        7          -0.004295108    0.000002415    0.029882266
     12        1           0.030468971   -0.047425984   -0.013731453
     13        1           0.030460333    0.047422743   -0.013701190
     14        7           0.376633736   -0.000022706   -0.000242075
     15        8          -0.185479074    0.247013566    0.000107400
     16        8          -0.185439380   -0.246976036    0.000150567
 -------------------------------------------------------------------
 Cartesian Forces:  Max     0.376633736 RMS     0.085187385

 GradGradGradGradGradGradGradGradGradGradGradGradGradGradGradGradGradGrad
 Berny optimization.
 Search for a local minimum.
 Step number   1 out of a maximum of    2
 All quantities printed in internal units (Hartrees-Bohrs-Radians)
 Second derivative matrix not updated -- first step.
 ITU=  0
     Eigenvalues ---    0.00325   0.00328   0.01141   0.01381   0.01550
     Eigenvalues ---    0.01795   0.02098   0.03070   0.03934   0.05138
     Eigenvalues ---    0.06686   0.06794   0.06944   0.08245   0.10143
     Eigenvalues ---    0.10883   0.11005   0.11224   0.12305   0.13245
     Eigenvalues ---    0.17780   0.23055   0.26976   0.29797   0.30161
     Eigenvalues ---    0.32031   0.41721   0.43212   0.44281   0.59457
     Eigenvalues ---    0.65713   0.84867   0.96784   1.11520   1.16983
     Eigenvalues ---    1.29697   1.38965   1.45974   1.55671   1.66683
     Eigenvalues ---    1.84706   2.76349
 Quadratic step=8.120D-01 exceeds max=3.000D-01 adjusted using Lamda=-4.514D-01.
 Angle between NR and scaled steps=  45.93 degrees.
 Angle between quadratic step and forces=  19.41 degrees.
 Linear search not attempted -- first point.
 B after Tr=    -0.004943    0.000001    0.001018
         Rot=    1.000000   -0.000000    0.000229   -0.000000 Ang=  -0.03 deg.
 Variable       Old X    -DE/DX   Delta X   Delta X   Delta X     New X
                                 (Linear)    (Quad)   (Total)
    X1       -1.34119  -0.04476   0.00000   0.01895   0.01400  -1.32719
    Y1        0.00008  -0.00005   0.00000  -0.00003  -0.00003   0.00004
    Z1       -0.00096   0.00035   0.00000  -0.00058  -0.00016  -0.00113
    X2       -0.01773   0.00504   0.00000   0.00742   0.00248  -0.01525
    Y2       -2.30395  -0.04618   0.00000  -0.04652  -0.04652  -2.35048
    Z2       -0.00423  -0.00035   0.00000  -0.00226  -0.00124  -0.00548
    X3        2.59758  -0.00811   0.00000  -0.00083  -0.00577   2.59181
    Y3       -2.30618  -0.02447   0.00000  -0.03111  -0.03110  -2.33729
    Z3       -0.01493   0.00055   0.00000  -0.00292  -0.00071  -0.01564
    X4        3.97252  -0.01859   0.00000  -0.01021  -0.01515   3.95738
    Y4       -0.00002   0.00000   0.00000   0.00001   0.00001  -0.00001
    Z4       -0.00756  -0.00282   0.00000  -0.00362  -0.00078  -0.00834
    X5        2.59760  -0.00813   0.00000  -0.00084  -0.00577   2.59183
    Y5        2.30611   0.02451   0.00000   0.03114   0.03114   2.33725
    Z5       -0.01487   0.00055   0.00000  -0.00292  -0.00071  -0.01558
    X6       -0.01776   0.00509   0.00000   0.00745   0.00251  -0.01526
    Y6        2.30403   0.04619   0.00000   0.04651   0.04651   2.35054
    Z6       -0.00408  -0.00035   0.00000  -0.00226  -0.00124  -0.00533
    X7       -1.06620   0.00075   0.00000  -0.00163  -0.00657  -1.07277
    Y7       -4.10847  -0.00032   0.00000  -0.01595  -0.01595  -4.12442
    Z7       -0.00197  -0.00019   0.00000  -0.00087  -0.00034  -0.00231
    X8        3.60972   0.00282   0.00000   0.01188   0.00694   3.61666
    Y8       -4.12298  -0.00200   0.00000  -0.01179  -0.01179  -4.13477
    Z8       -0.01387  -0.00001   0.00000  -0.00152   0.00116  -0.01272
    X9        3.60958   0.00282   0.00000   0.01189   0.00695   3.61654
    Y9        4.12306   0.00197   0.00000   0.01176   0.01176   4.13482
    Z9       -0.01395  -0.00001   0.00000  -0.00151   0.00117  -0.01278
   X10       -1.06609   0.00074   0.00000  -0.00164  -0.00658  -1.07267
   Y10        4.10858   0.00033   0.00000   0.01596   0.01596   4.12454
   Z10       -0.00155  -0.00019   0.00000  -0.00088  -0.00035  -0.00190
   X11        6.57447  -0.00430   0.00000   0.02129   0.01628   6.59075
   Y11       -0.00006   0.00000   0.00000  -0.00000  -0.00000  -0.00006
   Z11        0.11372   0.02988   0.00000   0.02242   0.02646   0.14019
   X12        7.47092   0.03047   0.00000   0.04008   0.03527   7.50619
   Y12       -1.59646  -0.04743   0.00000  -0.04954  -0.04954  -1.64600
   Z12       -0.27839  -0.01373   0.00000  -0.01693  -0.01247  -0.29086
   X13        7.47090   0.03046   0.00000   0.04007   0.03526   7.50616
   Y13        1.59665   0.04742   0.00000   0.04954   0.04955   1.64619
   Z13       -0.27730  -0.01370   0.00000  -0.01690  -0.01244  -0.28974
   X14       -4.13402   0.37663   0.00000   0.14655   0.14160  -3.99242
   Y14        0.00000  -0.00002   0.00000   0.00001   0.00001   0.00001
   Z14        0.00276  -0.00024   0.00000   0.00105   0.00024   0.00300
   X15       -5.24112  -0.18548   0.00000  -0.10580  -0.11074  -5.35186
   Y15        1.98669   0.24701   0.00000   0.11946   0.11946   2.10615
   Z15        0.00302   0.00011   0.00000   0.00213   0.00070   0.00373
   X16       -5.24113  -0.18544   0.00000  -0.10577  -0.11072  -5.35185
   Y16       -1.98676  -0.24698   0.00000  -0.11946  -0.11946  -2.10622
   Z16        0.00340   0.00015   0.00000   0.00215   0.00072   0.00412
         Item               Value     Threshold  Converged?
 Maximum Force            0.376634     0.000450     NO 
 RMS     Force            0.085187     0.000300     NO 
 Maximum Displacement     0.141602     0.001800     NO 
 RMS     Displacement     0.043189     0.001200     NO 
 Predicted change in Energy=-1.038216D-01
 GradGradGradGradGradGradGradGradGradGradGradGradGradGradGradGradGradGrad

 Unable to Open any file for archive entry.
 1\1\GINC-BHP0004\Force\RBLYP TD-FC\STO-3G\C6H6N2O2\BWEIGHT\26-Dec-2022
 \0\\# FORCE TD=(singlets,nstates=5) BLYP/STO-3G nosymm pop=full\\Title
 Me\\0,1\C,-0.7097297,0.00004,-0.00051\C,-0.00938,-1.2191995,-0.00224\C
 ,1.3745795,-1.2203795,-0.0079\C,2.1021692,-0.00001,-0.004\C,1.3745895,
 1.2203395,-0.00787\C,-0.0094,1.2192395,-0.00216\H,-0.5642098,-2.174109
 1,-0.00104\H,1.9101792,-2.1817891,-0.00734\H,1.9101092,2.1818291,-0.00
 738\H,-0.5641498,2.1741691,-0.00082\N,3.4790586,-0.00003,0.06018\H,3.9
 534384,-0.8448097,-0.1473199\H,3.9534284,0.8449097,-0.1467399\N,-2.187
 6291,0.,0.00146\O,-2.7734789,1.0513096,0.0016\O,-2.7734889,-1.0513496,
 0.0018\\Version=ES64L-G16RevC.01\HF=-485.4552131\RMSD=3.126e-09\RMSF=8
 .519e-02\Dipole=0.1203075,-0.0000057,-0.2699733\PG=C01 [X(C6H6N2O2)]\\
 @
 The archive entry for this job was punched.


     SCHOPENHAUER'S LAW OF ENTROPY
 IF YOU PUT A SPOONFUL OF WINE IN A BARREL FULL
 OF SEWAGE, YOU GET SEWAGE.
 IF YOU PUT A SPOONFUL OF SEWAGE IN A BARREL FULL
 OF WINE, YOU GET SEWAGE.
 Job cpu time:       0 days  0 hours  3 minutes 10.9 seconds.
 Elapsed time:       0 days  0 hours  3 minutes 11.0 seconds.
 File lengths (MBytes):  RWF=   1312 Int=      0 D2E=      0 Chk=     32 Scr=     32
 Normal termination of Gaussian 16 at Mon Dec 26 21:12:30 2022.
