60
MD Step 0 Units = [eV / Ang.]
C  0.78283618 -1.30938719 0.63526845
C  0.81043722 -1.41287028 0.27468472
C  1.20853951 0.71951082 0.86587021
C  1.11403285 0.46634965 1.12703915
C  1.28453269 -0.15252900 -1.02803941
C  1.35135021 0.20307482 -0.92906668
C  1.05354552 -1.05841695 0.70590126
C  1.24929264 -1.00744434 0.38911443
C  1.10072478 -1.22725014 0.12258631
C  -0.23163713 -0.20702728 1.62314227
C  1.43123765 0.54870136 0.61445852
C  1.27788030 0.14106455 1.03878237
C  0.46970101 1.47255377 -0.58338536
C  0.44087153 1.57538584 -0.22130802
C  1.41944254 -0.37701059 -0.75646413
C  1.56994704 -0.15814614 -0.48879525
C  1.52757802 0.20142948 -0.59464459
C  -0.09489814 -1.29716510 -1.01866793
C  -0.00076284 -1.04387871 -1.28068774
C  -0.97804862 -1.29803103 0.29599927
C  -0.80165441 -1.30053745 0.62836930
C  0.37288083 -0.99502335 -1.26581305
C  0.50706367 -1.21801099 -0.99358073
C  0.21849290 -1.40427634 -0.84157078
C  -0.03474736 0.73802423 -1.47878951
C  -0.30708372 0.48651271 -1.54834138
C  -0.14204607 0.15934638 -1.63778539
C  0.75544926 1.46941320 -0.04571876
C  1.47269324 0.19049636 0.72020450
C  -1.05331576 1.05845259 -0.70512205
C  0.00012211 1.04381769 1.28028902
C  0.09499841 1.29722062 1.01860628
C  -1.52756779 -0.20144853 0.59463911
C  -1.35133924 -0.20306053 0.92907038
C  -0.81054282 1.41277752 -0.27472301
C  -1.10072431 1.22718505 -0.12268752
C  -1.24922329 1.00745411 -0.38928753
C  0.97823135 1.29795844 -0.29591502
C  0.80170174 1.30054697 -0.62845339
C  -0.37272722 0.99503952 1.26583975
C  -0.21851135 1.40427177 0.84158213
C  0.03475503 -0.73803043 1.47886242
C  0.30689305 -0.48651098 1.54803197
C  -1.56978970 0.15811635 0.48895034
C  -1.41935443 0.37687586 0.75634981
C  -1.28452378 0.15253577 1.02808598
C  -1.11409826 -0.46640302 -1.12703624
C  -1.20821693 -0.71948281 -0.86601288
C  0.23163359 0.20706010 -1.62311186
C  0.29626571 0.56493750 -1.52277123
C  -1.43136340 -0.54866032 -0.61438787
C  -1.47271627 -0.19045798 -0.72019547
C  -1.27789883 -0.14100633 -1.03885253
C  -0.46963992 -1.47260292 0.58328026
C  -0.44055738 -1.57538890 0.22201298
C  -0.75618848 -1.46912990 0.04513427
C  0.14217034 -0.15934318 1.63798234
C  -0.50700146 1.21797952 0.99361462
C  -0.29628863 -0.56494411 1.52278580
C  -0.78283337 1.30938223 -0.63532292
60
MD Step 1 Units = [eV / Ang.]
C  0.79180935 -1.28262325 0.60821087
C  0.81650653 -1.37551179 0.28447203
C  1.20076090 0.68274103 0.85509523
C  1.11597096 0.45545421 1.08954831
C  1.28054604 -0.14190878 -0.99060797
C  1.34055568 0.17726359 -0.90173392
C  1.03477430 -1.05726284 0.67161647
C  1.21047168 -1.01150713 0.38720835
C  1.07719486 -1.20892189 0.14793248
C  -0.20884293 -0.22415841 1.59629261
C  1.40071382 0.52935012 0.62933730
C  1.26309862 0.16351958 1.01039586
C  0.48300012 1.44869654 -0.55537976
C  0.45708772 1.54093521 -0.23019886
C  1.40164034 -0.34355637 -0.74676021
C  1.53677330 -0.14707624 -0.50636216
C  1.49874404 0.17583721 -0.60133272
C  -0.06730923 -1.27065177 -1.01063164
C  0.01712562 -1.04323752 -1.24590902
C  -0.93944649 -1.29199590 0.29732605
C  -0.78105387 -1.29424885 0.59571956
C  0.35263683 -0.99936215 -1.23260892
C  0.47305756 -1.19955036 -0.98811998
C  0.21402048 -1.36675419 -0.85164743
C  -0.03042916 0.70104310 -1.46672501
C  -0.27497489 0.47516531 -1.52905603
C  -0.12670917 0.18141609 -1.60937874
C  0.73958870 1.44595341 -0.07267762
C  1.43786167 0.20775184 0.72421757
C  -1.03455436 1.05729616 -0.67086936
C  -0.01774124 1.04317826 1.24553032
C  0.06740517 1.27070438 1.01057136
C  -1.49873170 -0.17585692 0.60132881
C  -1.34054466 -0.17725008 0.90173721
C  -0.81660721 1.37542374 -0.28450870
C  -1.07719572 1.20885888 -0.14802991
C  -1.21040445 1.01151590 -0.38737066
C  0.93962096 1.29192620 -0.29724599
C  0.78110127 1.29425795 -0.59580078
C  -0.35249201 0.99937649 1.23263426
C  -0.21403867 1.36675073 0.85165761
C  0.03043419 -0.70104970 1.46679571
C  0.27479262 -0.47516264 1.52875594
C  -1.53662238 0.14704970 0.50650969
C  -1.40155443 0.34342669 0.74665039
C  -1.28053649 0.14191340 0.99065464
C  -1.11603309 -0.45550657 -1.08954710
C  -1.20044769 -0.68271470 -0.85523300
C  0.20883883 0.22418832 -1.59626360
C  0.26671910 0.54556308 -1.50607950
C  -1.40083367 -0.52931012 -0.62927046
C  -1.43788312 -0.20771510 -0.72421002
C  -1.26311771 -0.16346233 -1.01046219
C  -0.48293990 -1.44874343 0.55528098
C  -0.45678801 -1.54093712 0.23087819
C  -0.74029984 -1.44567613 0.07211545
C  0.12682750 -0.18141580 1.60956498
C  -0.47299877 1.19952191 0.98815213
C  -0.26674237 -0.54556940 1.50609396
C  -0.79180556 1.28261849 -0.60826307
60
MD Step 2 Units = [eV / Ang.]
C  0.81754956 -1.20364723 0.52877556
C  0.83373432 -1.26551832 0.31290306
C  1.17730388 0.57488809 0.82310147
C  1.12095661 0.42334604 0.97933685
C  1.26812116 -0.11078230 -0.88063393
C  1.30820088 0.10173081 -0.82132766
C  0.97930239 -1.05324693 0.57103588
C  1.09629921 -1.02276853 0.38139758
C  1.00779896 -1.15463243 0.22190781
C  -0.14210761 -0.27406568 1.51687223
C  1.31068497 0.47248519 0.67242634
C  1.21914547 0.22902976 0.92684387
C  0.52156419 1.37811255 -0.47321694
C  0.50418234 1.43933780 -0.25603107
C  1.34877697 -0.24560407 -0.71795859
C  1.43892076 -0.11464556 -0.55737560
C  1.41358386 0.10096317 -0.62050379
C  0.01334099 -1.19241930 -0.98654186
C  0.06937903 -1.04072942 -1.14353715
C  -0.82607771 -1.27358088 0.30102152
C  -0.72039014 -1.27508710 0.49995826
C  0.29327452 -1.01143302 -1.13484516
C  0.37340313 -1.14488793 -0.97156357
C  0.20083016 -1.25628575 -0.88056825
C  -0.01778839 0.59256501 -1.43059033
C  -0.18100338 0.44172300 -1.47177991
C  -0.08181340 0.24578359 -1.52540131
C  0.69280495 1.37653555 -0.15140935
C  1.33521060 0.25804568 0.73549866
C  -0.97911279 1.05327229 -0.57037570
C  -0.06993009 1.04067383 1.14321455
C  -0.01325874 1.19246276 0.98648375
C  -1.41356583 -0.10097979 0.62050310
C  -1.30819025 -0.10171946 0.82132898
C  -0.83382274 1.26544463 -0.31293581
C  -1.00780384 1.15457699 -0.22199001
C  -1.09623518 1.02277513 -0.38153774
C  0.82622458 1.27351641 -0.30095555
C  0.72043779 1.27509411 -0.50002696
C  -0.29314728 1.01144567 1.13486338
C  -0.20084537 1.25628412 0.88057603
C  0.01778776 -0.59257059 1.43065670
C  0.18085018 -0.44172520 1.47149982
C  -1.43879346 0.11462185 0.55750067
C  -1.34869308 0.24549273 0.71786725
C  -1.26811058 0.11078361 0.88067504
C  -1.12101528 -0.42338916 -0.97933691
C  -1.17701162 -0.57486717 -0.82322369
C  0.14210516 0.27408898 -1.51684894
C  0.18022839 0.48863208 -1.45638828
C  -1.31079057 -0.47244808 -0.67237119
C  -1.33522650 -0.25801339 -0.73549276
C  -1.21916162 -0.22898231 -0.92690039
C  -0.52150672 -1.37815219 0.47313118
C  -0.50391897 -1.43934176 0.25664542
C  -0.69344048 -1.37626701 0.15090550
C  0.08190920 -0.24579175 1.52556253
C  -0.37335518 1.14486577 0.97159202
C  -0.18025235 -0.48863777 1.45640396
C  -0.81754284 1.20364288 -0.52882057
60
MD Step 3 Units = [eV / Ang.]
C  0.85666147 -1.07621298 0.40196666
C  0.85933706 -1.08886153 0.35728438
C  1.13781393 0.40300234 0.77080643
C  1.12660569 0.37166872 0.80290723
C  1.24591307 -0.06128616 -0.70477893
C  1.25436198 -0.01804571 -0.69239598
C  0.88952644 -1.04478157 0.41066770
C  0.91336320 -1.03854821 0.37143511
C  0.89592201 -1.06637492 0.33857278
C  -0.03617573 -0.35252370 1.38810580
C  1.16554437 0.38152105 0.73928917
C  1.14712376 0.33227883 0.79272048
C  0.58156851 1.26361520 -0.34220239
C  0.57772437 1.27562711 -0.29641000
C  1.26239242 -0.09005262 -0.67092747
C  1.28113505 -0.06307841 -0.63701451
C  1.27594145 -0.01776614 -0.64960985
C  0.14098774 -1.06618625 -0.94643187
C  0.15195859 -1.03467558 -0.97918628
C  -0.64495605 -1.24188058 0.30626730
C  -0.62291342 -1.24219974 0.34736298
C  0.19871466 -1.02851630 -0.97780858
C  0.21490283 -1.05606517 -0.94340875
C  0.17954699 -1.07889461 -0.92458856
C  0.00225866 0.41965435 -1.37052221
C  -0.03188224 0.38789886 -1.37816265
C  -0.01057867 0.34718650 -1.38940765
C  0.61735660 1.26388730 -0.27574202
C  1.17004069 0.33714432 0.75188483
C  -0.88938725 1.04479412 -0.41014778
C  -0.15240646 1.03462612 0.97895680
C  -0.14092749 1.06621574 0.94637550
C  -1.27591596 0.01775536 0.64961326
C  -1.25435088 0.01805233 0.69239604
C  -0.85940585 1.08881123 -0.35731053
C  -0.89593383 1.06633220 -0.33863085
C  -0.91330522 1.03855144 -0.37154097
C  0.64506059 1.24182391 -0.30622511
C  0.62296195 1.24220337 -0.34741009
C  -0.19861532 1.02852617 0.97781473
C  -0.17955596 1.07889465 0.92459367
C  -0.00226644 -0.41965672 1.37058139
C  0.03177484 -0.38791075 1.37791518
C  -1.28104707 0.06305739 0.63710187
C  -1.26231062 0.08997146 0.67086704
C  -1.24590101 0.06128136 0.70480830
C  -1.12665920 -0.37169762 -0.80290634
C  -1.13755615 -0.40298958 -0.77090274
C  0.03617843 0.35253586 -1.38809252
C  0.04295296 0.39753209 -1.37481103
C  -1.16562616 -0.38148990 -0.73925330
C  -1.17004757 -0.33711880 -0.75188223
C  -1.14713535 -0.33224631 -0.79276101
C  -0.58151586 -1.26364346 0.34213671
C  -0.57751861 -1.27563351 0.29692254
C  -0.61787338 -1.26363168 0.27533113
C  0.01063724 -0.34720789 1.38952868
C  -0.21487167 1.05605239 0.94343150
C  -0.04297816 -0.39753658 1.37482874
C  -0.85664999 1.07621116 -0.40200169
60
MD Step 4 Units = [eV / Ang.]
C  0.90366038 -0.90684930 0.23624469
C  0.88884765 -0.85577432 0.41319411
C  1.08195540 0.17896459 0.69992174
C  1.12918551 0.30325827 0.57131088
C  1.21195433 0.00299957 -0.47434052
C  1.17945020 -0.17290952 -0.52270880
C  0.76965914 -1.02944417 0.20149658
C  0.67288742 -1.05460073 0.35698793
C  0.74743781 -0.94772692 0.48807045
C  0.10100662 -0.45253551 1.21570484
C  0.97290770 0.26225452 0.82267388
C  1.04914372 0.46444675 0.61589531
C  0.65674574 1.11019918 -0.17129231
C  0.67042964 1.05850427 -0.34739417
C  1.14534944 0.11153580 -0.60727482
C  1.07164933 0.00389209 -0.73735642
C  1.09253617 -0.17127391 -0.68452962
C  0.30551623 -0.89842012 -0.89057311
C  0.25814230 -1.02250091 -0.76247550
C  -0.40795465 -1.19566113 0.31176553
C  -0.49420535 -1.19444124 0.14851142
C  0.07556252 -1.04629726 -0.77056406
C  0.00897401 -0.93673611 -0.90302864
C  0.15126195 -0.84489699 -0.97765106
C  0.02818268 0.19422246 -1.28706558
C  0.16114826 0.31664540 -1.25127588
C  0.08161175 0.47689865 -1.20765629
C  0.51716647 1.11286373 -0.43541988
C  0.95147498 0.43804605 0.76992346
C  -0.76958819 1.02944089 -0.20116072
C  -0.25845515 1.02245966 0.76236896
C  -0.30548522 0.89843021 0.89052106
C  -1.09250025 0.17127026 0.68453848
C  -1.17943886 0.17291236 0.52270695
C  -0.88889245 0.85575349 -0.41321261
C  -0.74745759 0.94770107 -0.48809722
C  -0.67283623 1.05459999 -0.35705179
C  0.40800386 1.19561394 -0.31175408
C  0.49425387 1.19444088 -0.14852865
C  -0.07549657 1.04630384 0.77055471
C  -0.15126356 0.84489863 0.97765214
C  -0.02820011 -0.19422096 1.28711590
C  -0.16119326 -0.31667045 1.25107137
C  -1.07161363 -0.00390712 0.73739506
C  -1.14527251 -0.11157724 0.60725357
C  -1.21194047 -0.00301210 0.47435456
C  -1.12923234 -0.30326851 -0.57130977
C  -1.08174136 -0.17896283 -0.69998495
C  -0.10099828 0.45253361 -1.21570373
C  -0.13479626 0.27802488 -1.26351642
C  -0.97295958 -0.26222979 -0.82266169
C  -0.95147018 -0.43803018 -0.76992452
C  -1.04914852 -0.46443506 -0.61591337
C  -0.65669993 -1.11021208 0.17124993
C  -0.67029605 -1.05851636 0.34777514
C  -0.51752993 -1.11262382 0.43512868
C  -0.08160122 -0.47693752 1.20772555
C  -0.00896433 0.93673610 0.90304366
C  0.13476979 -0.27802799 1.26353596
C  -0.90364287 0.90684901 -0.23626634
60
MD Step 5 Units = [eV / Ang.]
C  0.95119059 -0.70518306 0.04367173
C  0.91634706 -0.58109719 0.47456582
C  1.00973220 -0.08035328 0.61317472
C  1.12391803 0.22225903 0.30042318
C  1.16400005 0.07701315 -0.20549495
C  1.08456951 -0.34999583 -0.32347627
C  0.62599641 -1.00426693 -0.04086586
C  0.39103308 -1.06538871 0.33774624
C  0.57097611 -0.80416605 0.65668080
C  0.25825417 -0.56441337 1.00828060
C  0.74396550 0.12299424 0.91269239
C  0.92864880 0.61327001 0.40775866
C  0.73852886 0.92541402 0.02678425
C  0.77229800 0.80073898 -0.40356790
C  1.00220037 0.34287096 -0.52953973
C  0.82257583 0.08098739 -0.84752867
C  0.87334440 -0.34680796 -0.71974589
C  0.49276526 -0.69865634 -0.81974380
C  0.37854258 -1.00101750 -0.50733565
C  -0.13203545 -1.13370720 0.31582028
C  -0.34237270 -1.13072134 -0.08158101
C  -0.06681304 -1.05913811 -0.52626473
C  -0.22823753 -0.79247835 -0.84993738
C  0.11758309 -0.56925210 -1.03162384
C  0.05783287 -0.06680832 -1.18155774
C  0.38226927 0.23227691 -1.09601619
C  0.18718406 0.62279715 -0.98952770
C  0.39800695 0.93081689 -0.61613654
C  0.69283100 0.55104821 0.78507707
C  -0.62600555 1.00424614 0.04098538
C  -0.37869816 1.00098666 0.50737430
C  -0.49276625 0.69864431 0.81969777
C  -0.87329875 0.34681340 0.71975996
C  -1.08455764 0.34999324 0.32346992
C  -0.91636529 0.58111055 -0.47457507
C  -0.57100387 0.80415989 -0.65667311
C  -0.39099083 1.06538462 -0.33776327
C  0.13202247 1.13367085 -0.31584235
C  0.34242009 1.13071628 0.08159664
C  0.06684246 1.05914067 0.52624012
C  -0.11757589 0.56925535 1.03162122
C  -0.05785946 0.06681457 1.18159769
C  -0.38224068 -0.23231868 1.09586193
C  -0.82260250 -0.08099647 0.84751129
C  -1.00213041 -0.34286585 0.52956235
C  -1.16398451 -0.07703232 0.20549159
C  -1.12395709 -0.22224867 -0.30042088
C  -1.00956883 0.08034175 -0.61319944
C  -0.25824074 0.56439646 -1.00829282
C  -0.33850469 0.13837250 -1.12612850
C  -0.74398225 -0.12297815 -0.91270776
C  -0.69281341 -0.55104280 -0.78508180
C  -0.92864518 -0.61328221 -0.40775076
C  -0.73849177 -0.92540954 -0.02680097
C  -0.77224576 -0.80075798 0.40379920
C  -0.39819363 -0.93059364 0.61598239
C  -0.18722725 -0.62285737 0.98953703
C  0.22822254 0.79249325 0.84994273
C  0.33847624 -0.13837549 1.12614988
C  -0.95116875 0.70518335 -0.04367655
60
MD Step 6 Units = [eV / Ang.]
C  0.99034757 -0.48408846 -0.16014686
C  0.93476319 -0.28436037 0.53385814
C  0.92178133 -0.35320859 0.51446899
C  1.10533231 0.13416199 0.01094061
C  1.09987935 0.15425911 0.08073321
C  0.97182405 -0.53290369 -0.10937184
C  0.46705825 -0.96604363 -0.29628072
C  0.08891844 -1.06442881 0.31351875
C  0.37804057 -0.64326960 0.82709087
C  0.42128298 -0.67600171 0.77758488
C  0.49363256 -0.02545046 0.99714767
C  0.79066762 0.76329012 0.18327482
C  0.81631671 0.71958993 0.23560469
C  0.87089654 0.51932153 -0.45819700
C  0.83944844 0.58313142 -0.44133184
C  0.55007119 0.16144495 -0.95402011
C  0.63179955 -0.52811829 -0.74858525
C  0.68475096 -0.47964618 -0.73546022
C  0.50127394 -0.96673393 -0.23207289
C  0.16081198 -1.05515586 0.31643929
C  -0.17809872 -1.05033870 -0.32356947
C  -0.21635449 -1.06042095 -0.26222936
C  -0.47602271 -0.63098626 -0.78403692
C  0.08065740 -0.27163850 -1.07664910
C  0.08846274 -0.34162360 -1.05646520
C  0.61129333 0.14051174 -0.91939066
C  0.29647385 0.76961661 -0.74775843
C  0.26758494 0.72781964 -0.79979375
C  0.41173598 0.66396303 0.79198026
C  -0.46715542 0.96600659 0.29616263
C  -0.50125633 0.96671548 0.23227161
C  -0.68478446 0.47961160 0.73542321
C  -0.63174561 0.52813090 0.74860377
C  -0.97181168 0.53289515 0.10936332
C  -0.93475252 0.28441018 -0.53385694
C  -0.37807641 0.64328510 -0.82704699
C  -0.08888868 1.06441969 -0.31348548
C  -0.16088795 1.05513377 -0.31649307
C  0.17814189 1.05032896 0.32361693
C  0.21634383 1.06041941 0.26218884
C  -0.08064232 0.27164277 1.07664217
C  -0.08849929 0.34163357 1.05649284
C  -0.61118810 -0.14056862 0.91929414
C  -0.55016143 -0.16144432 0.95394517
C  -0.83939152 -0.58307637 0.44139729
C  -1.09986174 -0.15428561 -0.08075414
C  -1.10536056 -0.13413193 -0.01093821
C  -0.92167451 0.35318204 -0.51445343
C  -0.42126573 0.67596763 -0.77761190
C  -0.54963723 -0.01067096 -0.96803177
C  -0.49361351 0.02545677 -0.99719018
C  -0.41170690 -0.66396862 -0.79198804
C  -0.79065563 -0.76332584 -0.18324039
C  -0.81628920 -0.71956660 -0.23559111
C  -0.87093135 -0.51934842 0.45826303
C  -0.26757844 -0.72761871 0.79978922
C  -0.29657130 -0.76969964 0.74770098
C  0.47598451 0.63101534 0.78403312
C  0.54960956 0.01066880 0.96805375
C  -0.99032183 0.48408941 0.16015708
60
MD Step 7 Units = [eV / Ang.]
C  1.01113801 -0.25937756 -0.35658205
C  0.93626481 0.01077427 0.58239664
C  0.81952301 -0.61373874 0.40886263
C  1.06764335 0.04566248 -0.27227347
C  1.01776841 0.22704847 0.35915273
C  0.84443572 -0.70231358 0.10189834
C  0.30341408 -0.91161079 -0.54076446
C  -0.20802891 -1.04468946 0.28429661
C  0.18272581 -0.47460047 0.97909068
C  0.57323326 -0.77317324 0.53829508
C  0.24017204 -0.17012092 1.06210102
C  0.64180504 0.89647995 -0.03944656
C  0.87795399 0.50564810 0.43561080
C  0.95191159 0.23502932 -0.50351600
C  0.66550601 0.80772333 -0.34729978
C  0.27393614 0.23725377 -1.04128074
C  0.38448408 -0.69606100 -0.76356498
C  0.86035641 -0.25704987 -0.64007011
C  0.61241742 -0.91614308 0.04115202
C  0.44429227 -0.95972452 0.31145298
C  -0.01434480 -0.95319945 -0.55444427
C  -0.35873408 -1.04295062 0.00055176
C  -0.70985435 -0.46195306 -0.70576685
C  0.04313003 0.02411844 -1.10165227
C  0.11684458 -0.60426909 -0.91550400
C  0.82440401 0.04831546 -0.73047518
C  0.39808491 0.89956959 -0.49817547
C  0.13534613 0.51649308 -0.96522873
C  0.12965500 0.76262912 0.78474679
C  -0.30359744 0.91155967 0.54041112
C  -0.61222591 0.91614004 -0.04079794
C  -0.86041875 0.25699317 0.64004604
C  -0.38442706 0.69607877 0.76358490
C  -0.84442231 0.70229996 -0.10190897
C  -0.93622645 -0.01069118 -0.58238633
C  -0.18276710 0.47463644 -0.97901447
C  0.20804209 1.04467548 -0.28421450
C  -0.44442634 0.95971843 -0.31153459
C  0.01438204 0.95318557 0.55451994
C  0.35868236 1.04294422 -0.00060370
C  -0.04310780 -0.02411339 1.10164181
C  -0.11688832 0.60428136 0.91551794
C  -0.82422716 -0.04838490 0.73043772
C  -0.27408586 -0.23724204 1.04115293
C  -0.66546602 -0.80761950 0.34740400
C  -1.01774862 -0.22708054 -0.35919091
C  -1.06765958 -0.04561541 0.27227617
C  -0.81947463 0.61369974 -0.40880633
C  -0.57321591 0.77312319 -0.53833461
C  -0.74633335 -0.15619332 -0.79637843
C  -0.24011933 0.17011501 -1.06216820
C  -0.12961600 -0.76264481 -0.78475760
C  -0.64178516 -0.89653681 0.03950724
C  -0.87793638 -0.50560683 -0.43556481
C  -0.95203364 -0.23506360 0.50341295
C  -0.13514598 -0.51632044 0.96537122
C  -0.39822951 -0.89967388 0.49805316
C  0.70979577 0.46199495 0.70575409
C  0.74630887 0.15619326 0.79639921
C  -1.01111050 0.25937742 0.35660777
60
MD Step 8 Units = [eV / Ang.]
C  1.00315836 -0.04877118 -0.52520706
C  0.91279782 0.27806256 0.61095301
C  0.70508756 -0.83366672 0.30224626
C  1.00515721 -0.03577801 -0.52182025
C  0.91633405 0.28700183 0.60206156
C  0.70655283 -0.83726719 0.29075999
C  0.14699807 -0.83807596 -0.74807551
C  -0.47173537 -0.99907752 0.25026532
C  0.00079637 -0.30909202 1.09091554
C  0.69578974 -0.84077877 0.30706277
C  0.00400953 -0.29675815 1.09280806
C  0.48982622 0.99344295 -0.24034125
C  0.91055023 0.29827025 0.60539799
C  1.00010733 -0.02892741 -0.53125399
C  0.49015660 0.98991213 -0.25283753
C  0.01632339 0.29968857 -1.09276691
C  0.15005969 -0.82987025 -0.75690229
C  0.99673451 -0.04841657 -0.53661127
C  0.69694658 -0.84597567 0.28778095
C  0.68953090 -0.84775015 0.29866778
C  0.13449814 -0.83984552 -0.74905411
C  -0.47829915 -0.99945208 0.23878824
C  -0.90300289 -0.29644424 -0.61609305
C  0.00796296 0.29159860 -1.09509335
C  0.13947323 -0.82635833 -0.76341802
C  0.99574053 -0.03654970 -0.53983344
C  0.47964264 0.99353163 -0.25867961
C  0.01186543 0.31118934 -1.08961204
C  -0.12951415 0.83185528 0.75738216
C  -0.14725386 0.83801554 0.74751329
C  -0.69659560 0.84599031 -0.28729651
C  -0.99681733 0.04834237 0.53660470
C  -0.15000760 0.82988784 0.75691938
C  -0.70653735 0.83724962 -0.29077173
C  -0.91273453 -0.27795028 -0.61093438
C  -0.00083871 0.30914592 -1.09081397
C  0.47172505 0.99905798 -0.25013848
C  -0.68970978 0.84776170 -0.29876836
C  -0.13447016 0.83982864 0.74915058
C  0.47820760 0.99944049 -0.23884703
C  -0.00793535 -0.29159326 1.09508031
C  -0.13952124 0.82637085 0.76341741
C  -0.99550466 0.03647202 0.53985168
C  -0.01651974 -0.29966596 1.09259700
C  -0.49013807 -0.98976456 0.25297073
C  -0.91631237 -0.28703788 -0.60211211
C  -1.00515893 0.03583846 0.52181996
C  -0.70509739 0.83361605 -0.30215095
C  -0.69577571 0.84071723 -0.30711095
C  -0.90484641 -0.28398029 -0.61964383
C  -0.00392627 0.29673884 -1.09289650
C  0.12955900 -0.83187922 -0.75739415
C  -0.48979952 -0.99351668 0.24042489
C  -0.91054286 -0.29821317 -0.60531981
C  -1.00031283 0.02888923 0.53098980
C  -0.01148386 -0.31105495 1.08988524
C  -0.47982299 -0.99364892 0.25850321
C  0.90292924 0.29649560 0.61607236
C  0.90482661 0.28398091 0.61966160
C  -1.00313273 0.04876784 0.52524671
60
MD Step 9 Units = [eV / Ang.]
C  0.95654240 0.12994508 -0.64584644
C  0.85679832 0.49135506 0.61061857
C  0.58100334 -0.98511383 0.20069228
C  0.91272441 -0.10270051 -0.71052678
C  0.79475184 0.32588259 0.78202782
C  0.56272484 -0.91722705 0.43775822
C  0.00985190 -0.74300770 -0.89232777
C  -0.67432941 -0.92104177 0.21174656
C  -0.15194814 -0.15787412 1.14136149
C  0.77098170 -0.86410428 0.10074874
C  -0.19438652 -0.39123715 1.07510305
C  0.34278547 1.03529079 -0.39943271
C  0.90169336 0.11233715 0.72385288
C  1.00077438 -0.24930798 -0.53342141
C  0.32347638 1.10345744 -0.16348830
C  -0.20055720 0.34017093 -1.09250746
C  -0.05268556 -0.90919376 -0.72121796
C  1.07153967 0.12863824 -0.42842812
C  0.74018795 -0.75342639 0.48336029
C  0.86797345 -0.72004090 0.27605141
C  0.25408217 -0.71128896 -0.88260662
C  -0.55962827 -0.92318952 0.42927065
C  -1.02918365 -0.14571289 -0.51632517
C  -0.02187074 0.50448652 -1.04601666
C  0.15291507 -0.97990364 -0.60538597
C  1.09994122 -0.10632799 -0.35835338
C  0.52901250 1.03289235 -0.04735302
C  -0.09225434 0.12646588 -1.15067011
C  -0.34189508 0.85687968 0.70429921
C  -0.01015697 0.74294254 0.89160933
C  -0.73970882 0.75346005 -0.48279022
C  -1.07163355 -0.12872400 0.42844292
C  0.05272553 0.90920769 0.72122829
C  -0.56270844 0.91720421 -0.43776909
C  -0.85671591 -0.49122475 -0.61059467
C  0.15191111 0.15794163 -1.14124488
C  0.67428960 0.92101557 -0.21158396
C  -0.86818100 0.72007133 -0.27616142
C  -0.25406557 0.71127101 0.88271489
C  0.55950022 0.92317270 -0.42932969
C  0.02190181 -0.50448295 1.04600224
C  -0.15296359 0.97991415 0.60537115
C  -1.09966643 0.10624933 0.35841923
C  0.20033301 -0.34013997 1.09231132
C  -0.32348239 -1.10327686 0.16363896
C  -0.79472850 -0.32591855 -0.78208656
C  -0.91271068 0.10276889 0.71052266
C  -0.58106698 0.98505864 -0.20056108
C  -0.77097726 0.86403569 -0.10079925
C  -1.00188315 -0.37994162 -0.44666545
C  0.19449267 0.39120293 -1.07520611
C  0.34193898 -0.85690982 -0.70430979
C  -0.34275361 -1.03537508 0.39953280
C  -0.90169564 -0.11226748 -0.72374201
C  -1.00105491 0.24926989 0.53300999
C  0.09279195 -0.12638300 1.15104582
C  -0.52920924 -1.03300897 0.04714149
C  1.02910405 0.14576883 0.51629789
C  1.00187195 0.37994504 0.44667701
C  -0.95651972 -0.12995040 0.64589488
60
MD Step 10 Units = [eV / Ang.]
C  0.86315298 0.26139911 -0.70128263
C  0.76208330 0.62818675 0.57393687
C  0.44971796 -1.04433570 0.10955721
C  0.78628489 -0.14868255 -0.81514030
C  0.65265684 0.33669003 0.87560358
C  0.41714818 -0.92478336 0.52621010
C  -0.09757408 -0.62462485 -0.95146563
C  -0.79193007 -0.80530551 0.16911491
C  -0.26186937 -0.03066842 1.11254059
C  0.78356650 -0.83076906 -0.06597796
C  -0.33734821 -0.44148259 0.99717507
C  0.20781921 1.00609995 -0.49956914
C  0.84101611 -0.03919316 0.77298059
C  0.94159618 -0.40606392 -0.50332406
C  0.17434840 1.12608824 -0.08413207
C  -0.35752829 0.35141199 -1.02713246
C  -0.20748018 -0.91678425 -0.65043090
C  1.06586682 0.25889218 -0.31860814
C  0.72974435 -0.63639411 0.60689211
C  0.95523436 -0.57761756 0.24196396
C  0.33207403 -0.56872218 -0.93398938
C  -0.58959457 -0.80872890 0.55205751
C  -1.06605713 -0.01958614 -0.40782610
C  -0.04380174 0.64018708 -0.94538527
C  0.15425982 -1.04106785 -0.44616878
C  1.11549143 -0.15433601 -0.19563478
C  0.53590432 1.00196191 0.12009189
C  -0.16785419 -0.02499561 -1.12958733
C  -0.48692882 0.82527969 0.62096287
C  0.09725319 0.62456137 0.95066009
C  -0.72917801 0.63644817 -0.60629839
C  -1.06595915 -0.25898116 0.31864971
C  0.20749789 0.91678809 0.65042874
C  -0.41713070 0.92475619 -0.52621757
C  -0.76198712 -0.62805267 -0.57391028
C  0.26184461 0.03074390 -1.11242161
C  0.79185278 0.80527246 -0.16892545
C  -0.95544717 0.57766891 -0.24206996
C  -0.33207229 0.56870503 0.93409708
C  0.58943399 0.80870674 -0.55210919
C  0.04383254 -0.64018622 0.94537112
C  -0.15430400 1.04107267 0.44613802
C  -1.11520938 0.15426773 0.19573883
C  0.35730591 -0.35137562 1.02693256
C  -0.17438229 -1.12589022 0.08428556
C  -0.65263299 -0.33672150 -0.87566402
C  -0.78625266 0.14875058 0.81512917
C  -0.44983240 1.04428446 -0.10939668
C  -0.78357745 0.83070038 0.06593164
C  -1.01768606 -0.43202752 -0.28530382
C  0.33746887 0.44143151 -0.99728471
C  0.48696549 -0.82531194 -0.62097063
C  -0.20778414 -1.00618662 0.49967874
C  -0.84102861 0.03927196 -0.77283842
C  -0.94194124 0.40603361 0.50278507
C  0.16851299 0.02500636 1.13003042
C  -0.53609279 -1.00205920 -0.12031606
C  1.06598102 0.01964030 0.40779436
C  1.01768679 0.43203382 0.28530634
C  -0.86313665 -0.26140681 0.70133705
60
MD Step 11 Units = [eV / Ang.]
C  0.71792450 0.33528480 -0.68018948
C  0.62485977 0.67362791 0.49614358
C  0.31314288 -0.99575254 0.03254092
C  0.62349695 -0.16943818 -0.82028817
C  0.49015103 0.31484707 0.86731546
C  0.27289950 -0.84859869 0.54505649
C  -0.16822958 -0.48205526 -0.91100063
C  -0.80872283 -0.64871431 0.12271306
C  -0.31984551 0.06590170 0.99289597
C  0.72360679 -0.73280761 -0.18318433
C  -0.41305072 -0.43952100 0.85153315
C  0.08988935 0.89558740 -0.52936241
C  0.72192651 -0.14753553 0.74096289
C  0.81471239 -0.48579437 -0.43667552
C  0.04890355 1.04327461 -0.01812845
C  -0.44175699 0.32864430 -0.88811031
C  -0.30337301 -0.84140681 -0.54075471
C  0.96743795 0.33213859 -0.20942423
C  0.65757211 -0.49379385 0.64442869
C  0.93524117 -0.42148515 0.19541900
C  0.36027315 -0.41326168 -0.88935187
C  -0.55958926 -0.65281136 0.59389111
C  -0.99900909 0.07524997 -0.29174189
C  -0.05610773 0.68368481 -0.78756342
C  0.14161089 -0.99420405 -0.28923846
C  1.02837695 -0.17612012 -0.05830965
C  0.49360719 0.89061456 0.23304557
C  -0.20880628 -0.13457892 -1.01418682
C  -0.55090374 0.72905027 0.50462683
C  0.16793113 0.48199881 0.91019994
C  -0.65697588 0.49387006 -0.64388543
C  -0.96751944 -0.33222592 0.20949222
C  0.30336263 0.84139873 0.54073794
C  -0.27288115 0.84856790 -0.54505943
C  -0.62475980 -0.67350208 -0.49611817
C  0.31983767 -0.06582311 -0.99278525
C  0.80860908 0.64867430 -0.12251242
C  -0.93543973 0.42155412 -0.19551012
C  -0.36028795 0.41324754 0.88944879
C  0.55940568 0.65278402 -0.59392840
C  0.05613705 -0.68368709 0.78755200
C  -0.14164590 0.99420003 0.28919506
C  -1.02811681 0.17607034 0.05843296
C  0.44156264 -0.32860851 0.88792902
C  -0.04896288 -1.04307621 0.01827085
C  -0.49012844 -0.31486932 -0.86737363
C  -0.62344842 0.16949993 0.82026933
C  -0.31329446 0.99571118 -0.03235744
C  -0.72363435 0.73274531 0.18314821
C  -0.93937304 -0.43228164 -0.14105397
C  0.41317401 0.43945345 -0.85164084
C  0.55092676 -0.72908256 -0.50462830
C  -0.08985381 -0.89566810 0.52947166
C  -0.72194746 0.14761747 -0.74079560
C  -0.81510446 0.48577649 0.43604619
C  0.20953651 0.13450962 1.01464735
C  -0.49376518 -0.89067426 -0.23325068
C  0.99894675 -0.07520274 0.29170708
C  0.93938886 0.43229126 0.14104534
C  -0.71791750 -0.33529559 0.68024337
60
MD Step 12 Units = [eV / Ang.]
C  0.52014537 0.34851864 -0.57963717
C  0.44471359 0.62348009 0.37631345
C  0.17237883 -0.83541011 -0.02901537
C  0.42445892 -0.16373316 -0.72184774
C  0.30797784 0.25923723 0.75306381
C  0.13143197 -0.68598771 0.49124949
C  -0.19991558 -0.31568955 -0.76724191
C  -0.72040800 -0.45111713 0.07283534
C  -0.32317356 0.12964427 0.77987113
C  0.58871185 -0.56851269 -0.24769885
C  -0.41799339 -0.38324086 0.63681486
C  -0.00915921 0.70149849 -0.48562549
C  0.54318171 -0.20986062 0.62477540
C  0.61857921 -0.48456912 -0.33262362
C  -0.05066754 0.85149537 0.03333241
C  -0.44944270 0.27069714 -0.67377258
C  -0.33701282 -0.68038778 -0.39165403
C  0.77341019 0.34532119 -0.10195891
C  0.52184147 -0.32596284 0.59207157
C  0.80378513 -0.25259918 0.13635951
C  0.33635981 -0.24588850 -0.74519211
C  -0.46744805 -0.45525131 0.55104081
C  -0.82443640 0.13657977 -0.16888487
C  -0.05827293 0.63079057 -0.57174676
C  0.11452335 -0.83534596 -0.13621931
C  0.83523607 -0.17039236 0.05125434
C  0.40051686 0.69663004 0.28816752
C  -0.21328602 -0.19949892 -0.80171910
C  -0.52987467 0.56648033 0.35505990
C  0.19967716 0.31564736 0.76653515
C  -0.52127145 0.32606003 -0.59165038
C  -0.77347118 -0.34539984 0.10205547
C  0.33696951 0.68036686 0.39161800
C  -0.13141338 0.68595394 -0.49124478
C  -0.44461735 -0.62337744 -0.37629307
C  0.32318889 -0.12956793 -0.77978186
C  0.72025839 0.45107063 -0.07263849
C  -0.80394749 0.25268475 -0.13642359
C  -0.33639487 0.24587936 0.74526841
C  0.46725175 0.45522008 -0.55105950
C  0.05829727 -0.63079790 0.57173959
C  -0.11454331 0.83533149 0.13616346
C  -0.83502827 0.17037041 -0.05112388
C  0.44930363 -0.27066635 0.67363260
C  0.05058288 -0.85131760 -0.03321734
C  -0.30795818 -0.25924682 -0.75311453
C  -0.42439306 0.16378157 0.72182095
C  -0.17255954 0.83538569 0.02921211
C  -0.58875796 0.56846474 0.24767982
C  -0.76385353 -0.37856875 -0.01601643
C  0.41811014 0.38315778 -0.63691146
C  0.52987819 -0.56650919 -0.35505342
C  0.00919278 -0.70156460 0.48572477
C  -0.54321007 0.20993982 -0.62459114
C  -0.61899822 0.48457177 0.33194181
C  0.21403596 0.19933631 0.80215262
C  -0.40062165 -0.69663362 -0.28832811
C  0.82439769 -0.13654559 0.16885012
C  0.76388435 0.37858015 0.01599465
C  -0.52015036 -0.34853242 0.57968677
60
MD Step 13 Units = [eV / Ang.]
C  0.27444332 0.30632508 -0.40652274
C  0.22542761 0.48600522 0.21812437
C  0.02784909 -0.57301232 -0.07640707
C  0.19239247 -0.13385809 -0.52879329
C  0.10791670 0.17280756 0.54202600
C  -0.00743412 -0.44448121 0.37106210
C  -0.19597824 -0.12766139 -0.52916272