60
MD Step 0 Units = [Angstroms]
C  -2.96219017 2.11017017 -0.06479000
C  -2.84897017 1.69937017 -1.49226000
C  -3.10217017 0.34396017 -1.86797000
C  -3.47934017 -0.65812983 -0.83219000
C  -3.58792017 -0.26404983 0.53723000
C  -3.32398017 1.14884017 0.92888000
C  -1.88684017 3.10235017 0.21536000
C  -1.10906017 3.30478017 -1.03897000
C  -1.70372017 2.43771017 -2.09435000
C  -0.85822017 1.79058017 -3.04767000
C  -2.22085017 -0.33054983 -2.86170000
C  -2.83112017 -1.95198983 -1.18582000
C  -2.31780017 -2.79908983 -0.15561000
C  -2.43096017 -2.38825983 1.27184000
C  -3.05283017 -1.14705983 1.61109000
C  -2.45819017 -0.27993983 2.66641000
C  -2.62576017 1.13898017 2.24477000
C  -1.59421017 2.09085017 2.51357000
C  -1.21706017 3.09292017 1.47779000
C  0.30683983 3.48954017 -0.97986000
C  1.00499983 3.47969017 0.33609000
C  0.25885983 3.28550017 1.53942000
C  0.79389983 2.40243017 2.61326000
C  -0.35136017 1.66409017 3.21534000
C  -0.19060017 0.30286017 3.61984000
C  -1.26589017 -0.68932983 3.33964000
C  -0.61770017 -1.98316983 2.98605000
C  -1.18815017 -2.81504983 1.97364000
C  -2.05328017 -1.74948983 -2.44008000
C  1.88683983 -3.10234983 -0.21537000
C  1.21706983 -3.09291983 -1.47779000
C  1.59420983 -2.09084983 -2.51357000
C  2.62575983 -1.13897983 -2.24477000
C  3.32397983 -1.14883983 -0.92888000
C  2.84896983 -1.69936983 1.49226000
C  1.70371983 -2.43770983 2.09435000
C  1.10905983 -3.30477983 1.03897000
C  -0.30684017 -3.48953983 0.97986000
C  -1.00500017 -3.47968983 -0.33609000
C  -0.25886017 -3.28549983 -1.53942000
C  0.35135983 -1.66408983 -3.21534000
C  0.19059983 -0.30285983 -3.61984000
C  1.26588983 0.68933017 -3.33963000
C  2.45818983 0.27994017 -2.66641000
C  3.05282983 1.14706017 -1.61109000
C  3.58791983 0.26405017 -0.53723000
C  3.47933983 0.65813017 0.83219000
C  3.10215983 -0.34395983 1.86797000
C  0.85821983 -1.79057983 3.04767000
C  1.12219983 -0.37773983 3.43932000
C  2.22084983 0.33055017 2.86170000
C  2.05327983 1.74949017 2.44008000
C  2.83111983 1.95199017 1.18582000
C  2.31779983 2.79909017 0.15561000
C  2.43095983 2.38826017 -1.27185000
C  1.18815983 2.81504017 -1.97363000
C  0.61769983 1.98317017 -2.98605000
C  -0.79390017 -2.40242983 -2.61326000
C  -1.12220017 0.37774017 -3.43932000
C  2.96218983 -2.11016983 0.06479000
60
MD Step 1 Units = [Angstroms]
C  -2.96187618 2.10964499 -0.06453521
C  -2.84864511 1.69880349 -1.49214983
C  -3.10168544 0.34424875 -1.86762271
C  -3.47889335 -0.65794279 -0.83173796
C  -3.58740496 -0.26411101 0.53681767
C  -3.32343816 1.14892162 0.92850737
C  -1.88641761 3.10192565 0.21564312
C  -1.10855910 3.30437610 -1.03881393
C  -1.70327869 2.43721794 -2.09430083
C  -0.85831307 1.79049713 -3.04701899
C  -2.22027612 -0.33032976 -2.86145355
C  -2.83060763 -1.95193325 -1.18540336
C  -2.31761178 -2.79849922 -0.15584399
C  -2.43078334 -2.38762797 1.27175124
C  -3.05226085 -1.14721105 1.61078660
C  -2.45756049 -0.28000326 2.66621395
C  -2.62514748 1.13906096 2.24453150
C  -1.59424823 2.09032990 2.51316143
C  -1.21706047 3.09250149 1.47727634
C  0.30644756 3.48901955 -0.97974128
C  1.00467830 3.47916854 0.33634203
C  0.25900939 3.28510108 1.53891230
C  0.79410321 2.40194164 2.61286149
C  -0.35127253 1.66352694 3.21500246
C  -0.19061410 0.30315618 3.61924688
C  -1.26601333 -0.68913470 3.33901899
C  -0.61775714 -1.98310592 2.98539311
C  -1.18784717 -2.81446048 1.97362166
C  -2.05268950 -1.74941343 -2.43979114
C  1.88641737 -3.10192531 -0.21565281
C  1.21706988 -3.09250118 -1.47727650
C  1.59424794 -2.09032954 -2.51316145
C  2.62514715 -1.13906063 -2.24453150
C  3.32343783 -1.14892128 -0.92850737
C  2.84864474 -1.69880319 1.49214981
C  1.70327835 -2.43721763 2.09430079
C  1.10855879 -3.30437576 1.03881386
C  -0.30644782 -3.48901925 0.97974131
C  -1.00467862 -3.47916821 -0.33634206
C  -0.25900966 -3.28510074 -1.53891229
C  0.35127219 -1.66352660 -3.21500246
C  0.19061377 -0.30315584 -3.61924685
C  1.26601292 0.68913504 -3.33900911
C  2.45756022 0.28000358 -2.66621389
C  3.05226056 1.14721132 -1.61078664
C  3.58740463 0.26411135 -0.53681765
C  3.47889299 0.65794310 0.83173797
C  3.10167524 -0.34424841 1.86762266
C  0.85831274 -1.79049679 3.04701900
C  1.12231866 -0.37751325 3.43870924
C  2.22027574 0.33033011 2.86145358
C  2.05268915 1.74941378 2.43979114
C  2.83060729 1.95193361 1.18540333
C  2.31761147 2.79849953 0.15584394
C  2.43078313 2.38762831 -1.27176095
C  1.18785654 2.81445092 -1.97361190
C  0.61775686 1.98310626 -2.98539303
C  -0.79410352 -2.40194132 -2.61286148
C  -1.12231900 0.37751358 -3.43870924
C  2.96187585 -2.10964466 0.06453518
60
MD Step 2 Units = [Angstroms]
C  -2.96092848 2.10809332 -0.06379367
C  -2.84766657 1.69713598 -1.49181197
C  -3.10023971 0.34508371 -1.86659108
C  -3.47755337 -0.65739124 -0.83041397
C  -3.58586490 -0.26428575 0.53561257
C  -3.32182328 1.14914491 0.92741308
C  -1.88516690 3.10065498 0.21646373
C  -1.10708929 3.30316248 -1.03834797
C  -1.70197511 2.43575819 -2.09413324
C  -0.85857309 1.79023467 -3.04509043
C  -2.21858107 -0.32968605 -2.86070340
C  -2.82908421 -1.95174578 -1.18417810
C  -2.31703681 -2.79674919 -0.15652243
C  -2.43024067 -2.38576289 1.27147823
C  -3.05056978 -1.14763718 1.60988554
C  -2.45570091 -0.28018439 2.66561262
C  -2.62333533 1.13928244 2.24381172
C  -1.59434013 2.08879271 2.51194402
C  -1.21704705 3.09124786 1.47576557
C  0.30530345 3.48746491 -0.97938460
C  1.00373169 3.47761109 0.33707079
C  0.25944115 3.28390216 1.53741815
C  0.79468515 2.40049310 2.61167216
C  -0.35101362 1.66186989 3.21398330
C  -0.19065239 0.30401321 3.61747991
C  -1.26635653 -0.68855929 3.33717424
C  -0.61791550 -1.98289679 2.98344821
C  -1.18695227 -2.81271390 1.97354513
C  -2.05094809 -1.74917073 -2.43892265
C  1.88516693 -3.10065459 -0.21647250
C  1.21705571 -3.09124763 -1.47576619
C  1.59433995 -2.08879229 -2.51194412
C  2.62333502 -1.13928214 -2.24381173
C  3.32182296 -1.14914455 -0.92741307
C  2.84766608 -1.69713580 1.49181191
C  1.70197478 -2.43575796 2.09413308
C  1.10708907 -3.30316213 1.03834770
C  -0.30530350 -3.48746469 0.97938473
C  -1.00373195 -3.47761074 -0.33707093
C  -0.25944124 -3.28390180 -1.53741810
C  0.35101325 -1.66186956 -3.21398329
C  0.19065206 -0.30401289 -3.61747979
C  1.26635590 0.68855963 -3.33716473
C  2.45570083 0.28018468 -2.66561238
C  3.05056958 1.14763730 -1.60988572
C  3.58586458 0.26428609 -0.53561249
C  3.47755294 0.65739149 0.83041397
C  3.10022989 -0.34508333 1.86659085
C  0.85857276 -1.79023429 3.04509048
C  1.12265092 -0.37685005 3.43689313
C  2.21858054 0.32968645 2.86070351
C  2.05094772 1.74917112 2.43892267
C  2.82908385 1.95174620 1.18417799
C  2.31703657 2.79674944 0.15652226
C  2.43024083 2.38576322 -1.27148712
C  1.18696078 2.81270468 -1.97353605
C  0.61791536 1.98289713 -2.98344791
C  -0.79468538 -2.40049281 -2.61167211
C  -1.12265129 0.37685037 -3.43689311
C  2.96092815 -2.10809300 0.06379358
60
MD Step 3 Units = [Angstroms]
C  -2.95932738 2.10558000 -0.06262979
C  -2.84602173 1.69445746 -1.49122399
C  -3.09785324 0.34637780 -1.86490177
C  -3.47531760 -0.65650147 -0.82830765
C  -3.58331148 -0.26454893 0.53370402
C  -3.31916306 1.14944929 0.92566266
C  -1.88313376 3.09854263 0.21774039
C  -1.10474370 3.30113151 -1.03757724
C  -1.69986637 2.43337588 -2.09378812
C  -0.85894650 1.78975307 -3.04194992
C  -2.21583886 -0.32866492 -2.85941579
C  -2.82658665 -1.95137511 -1.18221240
C  -2.31604495 -2.79389806 -0.15757881
C  -2.42929497 -2.38274786 1.27100055
C  -3.04780100 -1.14825932 1.60841083
C  -2.45269172 -0.28045705 2.66456575
C  -2.62039378 1.13958442 2.24259603
C  -1.59442115 2.08630284 2.50993831
C  -1.21697805 3.08916257 1.47334125
C  0.30349951 3.48489256 -0.97878735
C  1.00220956 3.47503474 0.33819883
C  0.26010711 3.28189495 1.53501736
C  0.79556522 2.39812979 2.60970648
C  -0.35059425 1.65920920 3.21226039
C  -0.19070485 0.30534349 3.61456981
C  -1.26684413 -0.68763098 3.33415350
C  -0.61813913 -1.98249108 2.98028455
C  -1.18550386 -2.80986748 1.97334739
C  -2.04813996 -1.74872169 -2.43746638
C  1.88313421 -3.09854218 -0.21774773
C  1.21698552 -3.08916245 -1.47334259
C  1.59442116 -2.08630232 -2.50993853
C  2.62039349 -1.13958415 -2.24259604
C  3.31916277 -1.14944891 -0.92566265
C  2.84602104 -1.69445744 1.49122386
C  1.69986603 -2.43337577 2.09378777
C  1.10474361 -3.30113115 1.03757666
C  -0.30349922 -3.48489248 0.97878763
C  -1.00220972 -3.47503438 -0.33819912
C  -0.26010693 -3.28189457 -1.53501728
C  0.35059385 -1.65920888 -3.21226035
C  0.19070454 -0.30534318 -3.61456955
C  1.26684315 0.68763132 -3.33414458
C  2.45269192 0.28045728 -2.66456523
C  3.04780098 1.14825920 -1.60841121
C  3.58331118 0.26454928 -0.53370386
C  3.47531704 0.65650162 0.82830766
C  3.09784403 -0.34637737 1.86490128
C  0.85894616 -1.78975263 3.04195002
C  1.12312697 -0.37579652 3.43391332
C  2.21583810 0.32866539 2.85941602
C  2.04813955 1.74872215 2.43746641
C  2.82658626 1.95137564 1.18221216
C  2.31604483 2.79389822 0.15757846
C  2.42929571 2.38274818 -1.27100812
C  1.18551099 2.80985882 -1.97333939
C  0.61813921 1.98249141 -2.98028389
C  -0.79556534 -2.39812956 -2.60970636
C  -1.12312739 0.37579684 -3.43391327
C  2.95932706 -2.10557968 0.06262960
60
MD Step 4 Units = [Angstroms]
C  -2.95704255 2.10220857 -0.06114579
C  -2.84369109 1.69091099 -1.49035071
C  -3.09455907 0.34799259 -1.86259767
C  -3.47218287 -0.65531540 -0.82556155
C  -3.57976403 -0.26486078 0.53123398
C  -3.31550224 1.14973869 0.92336040
C  -1.88039130 3.09559669 0.21934395
C  -1.10167023 3.29827179 -1.03651019
C  -1.69704330 2.43014314 -2.09317227
C  -0.85934825 1.78898980 -3.03770245
C  -2.21216736 -0.32733981 -2.85753796
C  -2.82317415 -1.95073879 -1.17961483
C  -2.31458874 -2.79003924 -0.15890760
C  -2.42788794 -2.37871580 1.27028616
C  -3.04402537 -1.14895255 1.60640100
C  -2.44866107 -0.28077978 2.66301020
C  -2.61643481 1.13987163 2.24086187
C  -1.59438905 2.08296286 2.50717763
C  -1.21678739 3.08625173 1.47013643
C  0.30118183 3.48132946 -0.97794570
C  1.00019088 3.47146738 0.33960329
C  0.26093117 3.27906699 1.53183715
C  0.79661598 2.39492427 2.60698817
C  -0.35003172 1.65568852 3.20979951
C  -0.19075542 0.30700777 3.61056644
C  -1.26735643 -0.68639342 3.33003358
C  -0.61837084 -1.98180784 2.97601293
C  -1.18356322 -2.80601315 1.97292902
C  -2.04439905 -1.74800325 -2.43541010
C  1.88039227 -3.09559617 -0.21934943
C  1.21679331 -3.08625177 -1.47013867
C  1.59438929 -2.08296222 -2.50717801
C  2.61643457 -1.13987141 -2.24086188
C  3.31550197 -1.14973828 -0.92336038
C  2.84369015 -1.69091118 1.49035049
C  1.69704295 -2.43014319 2.09317170
C  1.10167032 -3.29827141 1.03650921
C  -0.30118114 -3.48132956 0.97794617
C  -1.00019091 -3.47146700 -0.33960377
C  -0.26093063 -3.27906657 -1.53183701
C  0.35003128 -1.65568821 -3.20979945
C  0.19075510 -0.30700747 -3.61056600
C  1.26735502 0.68639375 -3.33002544
C  2.44866162 0.28077995 -2.66300932
C  3.04402558 1.14895211 -1.60640164
C  3.57976376 0.26486113 -0.53123371
C  3.47218214 0.65531543 0.82556156
C  3.09455068 -0.34799211 1.86259684
C  0.85934790 -1.78898929 3.03770262
C  1.12363662 -0.37442625 3.42983693
C  2.21216630 0.32734039 2.85753835
C  2.04439860 1.74800380 2.43541014
C  2.82317370 1.95073946 1.17961444
C  2.31458879 2.79003929 0.15890701
C  2.42788941 2.37871611 -1.27029201
C  1.18356857 2.80600523 -1.97292244
C  0.61837119 1.98180815 -2.97601182
C  -0.79661597 -2.39492410 -2.60698797
C  -1.12363710 0.37442655 -3.42983683
C  2.95704225 -2.10220827 0.06114548
60
MD Step 5 Units = [Angstroms]
C  -2.95403737 2.09811603 -0.05947493
C  -2.84065204 1.68668462 -1.48914778
C  -3.09040336 0.34974815 -1.85973652
C  -3.46814847 -0.65388827 -0.82236217
C  -3.57525128 -0.26516970 0.52838791
C  -3.31090234 1.14988906 0.92064307
C  -1.87703661 3.09183069 0.22110633
C  -1.09806263 3.29457172 -1.03515883
C  -1.69362596 2.42615629 -2.09216635
C  -0.85966841 1.78786517 -3.03248782
C  -2.20772229 -0.32580673 -2.85500400
C  -2.81892657 -1.94973137 -1.17652802
C  -2.31260869 -2.78529715 -0.16037147
C  -2.42594600 -2.37384218 1.26929458
C  -3.03933817 -1.14955527 1.60390787
C  -2.44377833 -0.28109887 2.66086636
C  -2.61160689 1.14002113 2.23858204
C  -1.59411220 2.07890847 2.50370786
C  -1.21639020 3.08252635 1.46632590
C  0.29854107 3.47681413 -0.97685562
C  0.99777950 3.46694878 0.34112444
C  0.26181443 3.27540528 1.52804470
C  0.79767222 2.39097341 2.60355073
C  -0.34934891 1.65149661 3.20655929
C  -0.19078332 0.30882495 3.60553833
C  -1.26773876 -0.68490417 3.32491777
C  -0.61853678 -1.98074359 2.97078064
C  -1.18121136 -2.80127341 1.97216244
C  -2.03990187 -1.74693498 -2.43274025
C  1.87703817 -3.09183010 -0.22110970
C  1.21639433 -3.08252657 -1.46632913
C  1.59411269 -2.07890770 -2.50370845
C  2.61160673 -1.14002096 -2.23858205
C  3.31090211 -1.14988861 -0.92064305
C  2.84065081 -1.68668502 1.48914745
C  1.69362558 -2.42615651 2.09216552
C  1.09806293 -3.29457132 1.03515741
C  -0.29853992 -3.47681445 0.97685628
C  -0.99777936 -3.46694838 -0.34112512
C  -0.26181347 -3.27540481 -1.52804452
C  0.34934843 -1.65149630 -3.20655921
C  0.19078299 -0.30882466 -3.60553767
C  1.26773689 0.68490447 -3.32491058
C  2.44377926 0.28109895 -2.66086511
C  3.03933868 1.14955449 -1.60390878
C  3.57525105 0.26517005 -0.52838751
C  3.46814755 0.65388817 0.82236218
C  3.09039595 -0.34974760 1.85973530
C  0.85966806 -1.78786460 3.03248805
C  1.12403742 -0.37283545 3.42475478
C  2.20772090 0.32580743 2.85500456
C  2.03990137 1.74693564 2.43274031
C  2.81892608 1.94973218 1.17652745
C  2.31260893 2.78529709 0.16037059
C  2.42594832 2.37384247 -1.26929840
C  1.18121464 2.80126644 -1.97215750
C  0.61853741 1.98074385 -2.97077901
C  -0.79767206 -2.39097330 -2.60355045
C  -1.12403800 0.37283572 -3.42475463
C  2.95403710 -2.09811574 0.05947447
60
MD Step 6 Units = [Angstroms]
C  -2.95027486 2.09346500 -0.05777174
C  -2.83688364 1.68199939 -1.48756652
C  -3.08544525 0.35143652 -1.85638864
C  -3.46322000 -0.65228534 -0.81892718
C  -3.56981310 -0.26541644 0.52538173
C  -3.30544079 1.14975877 0.91767091
C  -1.87318571 3.08726606 0.22283316
C  -1.09414747 3.29002394 -1.03353902
C  -1.68975658 2.42153149 -2.09063588
C  -0.85978114 1.78629011 -3.02647364
C  -2.20268824 -0.32417756 -2.85174282
C  -2.81394171 -1.94823419 -1.17311942
C  -2.31004006 -2.77982117 -0.16181154
C  -2.42338838 -2.36833477 1.26798124
C  -3.03385546 -1.14988232 1.60099443
C  -2.43824430 -0.28135256 2.65804689
C  -2.60608694 1.13989252 2.23572917
C  -1.59344097 2.07430076 2.49958683
C  -1.21569034 3.07800487 1.46211495
C  0.29579873 3.47139766 -0.97551424
C  0.99509766 3.46153142 0.34257781
C  0.26264274 3.27090080 1.52383665
C  0.79854390 2.38639390 2.59943779
C  -0.34857298 1.64685529 3.20249768
C  -0.19076484 0.31058570 3.59957155
C  -1.26781421 -0.68323118 3.31893197
C  -0.61855248 -1.97918204 2.96476385
C  -1.17854437 -2.79579543 1.97090342
C  -2.03485675 -1.74542691 -2.42944564
C  1.87318785 -3.08726542 -0.22283432
C  1.21569255 -3.07800530 -1.46211914
C  1.59344172 -2.07429987 -2.49958766
C  2.60608689 -1.13989240 -2.23572917
C  3.30544062 -1.14975829 -0.91767089
C  2.83688212 -1.68200001 1.48756608
C  1.68975615 -2.42153189 2.09063481
C  1.09414803 -3.29002353 1.03353714
C  -0.29579714 -3.47139822 0.97551507
C  -0.99509730 -3.46153100 -0.34257868
C  -0.26264135 -3.27090030 -1.52383645
C  0.34857246 -1.64685498 -3.20249758
C  0.19076448 -0.31058542 -3.59957063
C  1.26781189 0.68323142 -3.31892585
C  2.43824560 0.28135256 -2.65804527
C  3.03385633 1.14988120 -1.60099560
C  3.56981293 0.26541676 -0.52538121
C  3.46321884 0.65228512 0.81892720
C  3.08543896 -0.35143593 1.85638700
C  0.85978081 -1.78628949 3.02647393
C  1.12416637 -0.37113631 3.41877846
C  2.20268649 0.32417839 2.85174353
C  2.03485623 1.74542768 2.42944571
C  2.81394117 1.94823513 1.17311868
C  2.31004053 2.77982098 0.16181038
C  2.42339159 2.36833502 -1.26798285
C  1.17854542 2.79578959 -1.97090025
C  0.61855335 1.97918219 -2.96476171
C  -0.79854361 -2.38639384 -2.59943741
C  -1.12416705 0.37113657 -3.41877823
C  2.95027465 -2.09346472 0.05777114
60
MD Step 7 Units = [Angstroms]
C  -2.94572483 2.08843344 -0.05619953
C  -2.83237225 1.67709370 -1.48556005
C  -3.07975641 0.35283927 -1.85263384
C  -3.45741371 -0.65057744 -0.81548882
C  -3.56350227 -0.26553919 0.52244495
C  -3.29920922 1.14920174 0.91461578
C  -1.86896666 3.08193462 0.22431991
C  -1.09016721 3.28463051 -1.03167057
C  -1.68559040 2.41639858 -2.08844518
C  -0.85955618 1.78417593 -3.01984593
C  -2.19726660 -0.32257132 -2.84768788
C  -2.80833122 -1.94612783 -1.16956933
C  -2.30682146 -2.77377726 -0.16306059
C  -2.42013704 -2.36241993 1.26630286
C  -3.02770882 -1.14974167 1.59773199
C  -2.43227826 -0.28147650 2.65446751
C  -2.60006946 1.13934101 2.23228104
C  -1.59222220 2.06931601 2.49488304
C  -1.21458998 3.07271596 1.45772469
C  0.29318953 3.46514432 -0.97392144
C  0.99227733 3.45528107 0.34376966
C  0.26329642 3.26555382 1.51942511
C  0.79903283 2.38131605 2.59470315
C  -0.34773364 1.64200362 3.19757986
C  -0.19067551 0.31206999 3.59276773
C  -1.26739978 -0.68144825 3.31221898
C  -0.61833063 -1.97700634 2.95815743
C  -1.17566717 -2.78974295 1.96900561
C  -2.02948967 -1.74338926 -2.42552169
C  1.86896930 -3.08193396 -0.22431895
C  1.21459029 -3.07271663 -1.45772967
C  1.59222317 -2.06931502 -2.49488414
C  2.60006957 -1.13934091 -2.23228101
C  3.29920910 -1.14920124 -0.91461577
C  2.83237044 -1.67709449 1.48555949
C  1.68558989 -2.41639914 2.08844390
C  1.09016805 -3.28463009 1.03166826
C  -0.29318756 -3.46514515 0.97392240
C  -0.99227673 -3.45528064 -0.34377068
C  -0.26329461 -3.26555327 -1.51942491
C  0.34773310 -1.64200331 -3.19757974
C  0.19067509 -0.31206972 -3.59276652
C  1.26739711 0.68144838 -3.31221400
C  2.43227985 0.28147642 -2.65446558
C  3.02771008 1.14974025 -1.59773335
C  3.56350216 0.26553947 -0.52244433
C  3.45741229 0.65057712 0.81548885
C  3.07975133 -0.35283864 1.85263180
C  0.85955587 -1.78417529 3.01984625
C  1.12385477 -0.36944839 3.41203596
C  2.19726452 0.32257230 2.84768870
C  2.02948915 1.74339013 2.42552176
C  2.80833064 1.94612888 1.16956846
C  2.30682218 2.77377698 0.16305915
C  2.42014111 2.36242012 -1.26630221
C  1.17566602 2.78973838 -1.96900420
C  0.61833166 1.97700633 -2.95815482
C  -0.79903245 -2.38131602 -2.59470268
C  -1.12385558 0.36944863 -3.41203563
C  2.94572469 -2.08843316 0.05619879
60
MD Step 8 Units = [Angstroms]
C  -2.94037182 2.08320190 -0.05491543
C  -2.82711781 1.67220425 -1.48309011
C  -3.07341988 0.35374816 -1.84855732
C  -3.45076112 -0.64883560 -0.81227392
C  -3.55638588 -0.26547986 0.51980046
C  -3.29231083 1.14808293 0.91164702
C  -1.86451109 3.07588116 0.22537113
C  -1.08635979 3.27840853 -1.02957727
C  -1.68128431 2.41089342 -2.08547351
C  -0.85887233 1.78144563 -3.01279726
C  -2.19166097 -0.32110388 -2.84278836
C  -2.80221527 -1.94330656 -1.16605636
C  -2.30290451 -2.76733766 -0.16395872
C  -2.41612815 -2.35632599 1.26422371
C  -3.02103857 -1.14895415 1.59419638
C  -2.42610203 -0.28141019 2.65005949
C  -2.59375331 1.13823272 2.22822655
C  -1.59031607 2.06413306 2.48967378
C  -1.21300071 3.06670133 1.45337421
C  0.29094031 3.45813184 -0.97208160
C  0.98944989 3.44827680 0.34451548
C  0.26366169 3.25937961 1.51502086
C  0.79895233 2.37587600 2.58941047
C  -0.34686106 1.63717880 3.19178713
C  -0.19049272 0.31306788 3.58524104
C  -1.26632556 -0.67962938 3.30493121
C  -0.61779021 -1.97411337 2.95116216
C  -1.17268602 -2.78328609 1.96633748
C  -2.02402706 -1.74074381 -2.42097515
C  1.86451408 -3.07588052 -0.22536835
C  1.21299928 -3.06670223 -1.45337970
C  1.59031722 -2.06413203 -2.48967518
C  2.59375363 -1.13823264 -2.22822647
C  3.29231078 -1.14808242 -0.91164703
C  2.82711574 -1.67220515 1.48308945
C  1.68128368 -2.41089413 2.08547208
C  1.08636092 -3.27840811 1.02957459
C  -0.29093807 -3.45813294 0.97208263
C  -0.98944902 -3.44827637 -0.34451660
C  -0.26365950 -3.25937902 -1.51502072
C  0.34686051 -1.63717849 -3.19178700
C  0.19049219 -0.31306760 -3.58523954
C  1.26632267 0.67962935 -3.30492741
C  2.42610379 0.28141002 -2.65005737
C  3.02104026 1.14895252 -1.59419786
C  3.55638586 0.26548008 -0.51979976
C  3.45075943 0.64883523 0.81227396
C  3.07341603 -0.35374753 1.84855493
C  0.85887206 -1.78144501 3.01279759
C  1.12294574 -0.36788822 3.40466593
C  2.19165860 0.32110499 2.84278924
C  2.02402656 1.74074477 2.42097522
C  2.80221468 1.94330766 1.16605540
C  2.30290549 2.76733731 0.16395705
C  2.41613298 2.35632610 -1.26422089
C  1.17268282 2.78328294 -1.96633772
C  0.61779128 1.97411310 -2.95115919
C  -0.79895190 -2.37587597 -2.58940991
C  -1.12294671 0.36788844 -3.40466549
C  2.94037177 -2.08320163 0.05491456
60
MD Step 9 Units = [Angstroms]
C  -2.93422346 2.07793935 -0.05405404
C  -2.82114025 1.66754510 -1.48013457
C  -3.06652829 0.35398781 -1.84424496
C  -3.44331358 -0.64712512 -0.80948201
C  -3.54854642 -0.26519072 0.51764234
C  -3.28485708 1.14629513 0.90891577
C  -1.85994464 3.06916567 0.22582146
C  -1.08293615 3.27139581 -1.02728671
C  -1.67698422 2.40514915 -2.08163252
C  -0.85763215 1.77804601 -3.00551350
C  -2.18606078 -0.31987642 -2.83702097
C  -2.79571637 -1.93969381 -1.16274134
C  -2.29826419 -2.76066905 -0.16437050
C  -2.41132428 -2.35026462 1.26172220
C  -3.01398595 -1.14737484 1.59046369
C  -2.41992226 -0.28110390 2.64478289
C  -2.58732670 1.13646135 2.22357198
C  -1.58761442 2.05891933 2.48404269
C  -1.21085558 3.06001829 1.44926098
C  0.28924693 3.45045106 -0.97000534
C  0.98673456 3.44061055 0.34466010
C  0.26364324 3.25241428 1.51081470
C  0.79814858 2.37020687 2.58363241
C  -0.34598344 1.63259503 3.18512607
C  -0.19019848 0.31340226 3.57711440
C  -1.26445532 -0.67784259 3.29722224
C  -0.61686639 -1.97042895 2.94397047
C  -1.16969996 -2.77658990 1.96280060
C  -2.01867663 -1.73743606 -2.41582891
C  1.85994777 -3.06916509 -0.22581731
C  1.21085269 -3.06001940 -1.44926659
C  1.58761568 -2.05891831 -2.48404438
C  2.58732726 -1.13646128 -2.22357184
C  3.28485711 -1.14629462 -0.90891581
C  2.82113797 -1.66754601 1.48013382
C  1.67698344 -2.40514995 2.08163102
C  1.08293755 -3.27139541 1.02728377
C  -0.28924457 -3.45045242 0.97000636
C  -0.98673340 -3.44061014 -0.34466123
C  -0.26364074 -3.25241367 -1.51081465
C  0.34598291 -1.63259470 -3.18512595
C  0.19019782 -0.31340195 -3.57711262
C  1.26445241 0.67784234 -3.29721959
C  2.41992402 0.28110368 -2.64478070
C  3.01398809 1.14737313 -1.59046518
C  3.54854649 0.26519083 -0.51764161
C  3.44331163 0.64712474 0.80948205
C  3.06652567 -0.35398723 1.84424230
C  0.85763194 -1.77804546 3.00551378
C  1.12131326 -0.36655795 3.39681089
C  2.18605819 0.31987765 2.83702185
C  2.01867620 1.73743710 2.41582897
C  2.79571578 1.93969491 1.16274036
C  2.29826543 2.76066868 0.16436865
C  2.41132970 2.35026462 -1.26171741
C  1.16969502 2.77658828 -1.96280227
C  0.61686737 1.97042834 -2.94396727
C  -0.79814815 -2.37020679 -2.58363178
C  -1.12131440 0.36655814 -3.39681033
C  2.93422352 -2.07793910 0.05405309
60
MD Step 10 Units = [Angstroms]
C  -2.92731831 2.07278898 -0.05371131
C  -2.81448554 1.66328670 -1.47669443
C  -3.05918187 0.35343798 -1.83977847
C  -3.43514636 -0.64549953 -0.80726353
C  -3.54008237 -0.26464097 0.51611397
C  -3.27696401 1.14377535 0.90653938
C  -1.85537730 3.06186531 0.22555632
C  -1.08005792 3.26365607 -1.02483005
C  -1.67281244 2.39928724 -2.07688315
C  -0.85577630 1.77395944 -2.99816021
C  -2.18062490 -0.31896424 -2.83040124
C  -2.78895287 -1.93525731 -1.15975138
C  -2.29290869 -2.75392070 -0.16420181
C  -2.40572614 -2.34441227 1.25879723
C  -3.00668505 -1.14491406 1.58660576
C  -2.41391262 -0.28052560 2.63863924
C  -2.58095216 1.13396440 2.21834684
C  -1.58405857 2.05381665 2.47807707
C  -1.20812082 3.05274198 1.44554125
C  0.28825143 3.44220530 -0.96771115
C  0.98422693 3.43238630 0.34409749
C  0.26317655 3.24472015 1.50695885
C  0.79652165 2.36442973 2.57744962
C  -0.34512469 1.62842240 3.17763735
C  -0.18978220 0.31295119 3.56851531
C  -1.26170686 -0.67614372 3.28923805
C  -0.61552024 -1.96592281 2.93675189
C  -1.16679238 -2.76980270 1.95834742
C  -2.01360828 -1.73344701 -2.41012640
C  1.85538034 -3.06186486 -0.22555137
C  1.20811686 -3.05274328 -1.44554653
C  1.58405986 -2.05381571 -2.47807904
C  2.58095299 -1.13396432 -2.21834663
C  3.27696414 -1.14377486 -0.90653944
C  2.81448313 -1.66328752 1.47669362
C  1.67281149 -2.39928808 2.07688168
C  1.08005957 -3.26365571 1.02482698
C  -0.28824910 -3.44220689 0.96771206
C  -0.98422545 -3.43238593 -0.34409856
C  -0.26317384 -3.24471952 -1.50695895
C  0.34512420 -1.62842206 -3.17763724
C  0.18978136 -0.31295085 -3.56851325
C  1.26170415 0.67614318 -3.28923651
C  2.41391422 0.28052534 -2.63863715
C  3.00668763 1.14491239 -1.58660714
C  3.54008256 0.26464096 -0.51611325
C  3.43514415 0.64549920 0.80726358
C  3.05918044 -0.35343749 1.83977564
C  0.85577614 -1.77395900 2.99816042
C  1.11888075 -0.36553407 3.38861012
C  2.18062217 0.31896556 2.83040203
C  2.01360795 1.73344808 2.41012644
C  2.78895231 1.93525834 1.15975045
C  2.29291020 2.75392037 0.16419987
C  2.40573192 2.34441212 -1.25879082
C  1.16678614 2.76980266 -1.95835022
C  0.61552096 1.96592177 -2.93674863
C  -0.79652129 -2.36442956 -2.57744895
C  -1.11888206 0.36553424 -3.38860942
C  2.92731851 -2.07278875 0.05371031
60
MD Step 11 Units = [Angstroms]
C  -2.91973236 2.06785587 -0.05393084
C  -2.80723060 1.65953798 -1.47279985
C  -3.05148648 0.35205250 -1.83523105
C  -3.42636183 -0.64399552 -0.80570137
C  -3.53110850 -0.26382238 0.51528928
C  -3.26874889 1.14051868 0.90458811
C  -1.85089512 3.05407581 0.22452947
C  -1.07781842 3.25528314 -1.02224170
C  -1.66885681 2.39340973 -2.07124992
C  -0.85329566 1.76921368 -2.99087102
C  -2.17546755 -0.31840708 -2.82299292
C  -2.78203326 -1.93002172 -1.15716613
C  -2.28688775 -2.74721406 -0.16341424
C  -2.39938235 -2.33889412 1.25547359
C  -2.99925568 -1.14155506 1.58268635
C  -2.40819856 -0.27966670 2.63168229
C  -2.57475356 1.13073694 2.21260870
C  -1.57965442 2.04892915 2.47186536
C  -1.20480574 3.04496707 1.44231333
C  0.28802259 3.43350949 -0.96522665
C  0.98198912 3.42371910 0.34278764
C  0.26223830 3.23639000 1.50355110
C  0.79404331 2.35864574 2.57094964
C  -0.34430234 1.62476894 3.16940284
C  -0.18924300 0.31166692 3.55957200
C  -1.25806912 -0.67457107 3.28110937
C  -0.61374689 -1.96062101 2.92964054
C  -1.16402371 -2.76304590 1.95299627
C  -2.00893771 -1.72880301 -2.40393523
C  1.85089780 -3.05407553 -0.22452437
C  1.20480116 -3.04496852 -1.44231779
C  1.57965568 -2.04892836 -2.47186758
C  2.57475468 -1.13073686 -2.21260843
C  3.26874913 -1.14051823 -0.90458821
C  2.80722812 -1.65953860 1.47279898
C  1.66885566 -2.39341056 2.07124857
C  1.07782025 -3.25528285 1.02223864
C  -0.28802047 -3.43351128 0.96522738
C  -0.98198734 -3.42371877 -0.34278855
C  -0.26223552 -3.23638938 -1.50355139
C  0.34430191 -1.62476859 -3.16940276
C  0.18924195 -0.31166655 -3.55956969
C  1.25806682 0.67457019 -3.28110885
C  2.40819981 0.27966643 -2.63168044
C  2.99925866 1.14155360 -1.58268750
C  3.53110883 0.26382222 -0.51528863
C  3.42635938 0.64399529 0.80570142
C  3.05148613 -0.35205213 1.83522818
C  0.85329555 -1.76921342 2.99087112
C  1.11563680 -0.36485781 3.38019337
C  2.17546478 0.31840845 2.82299353
C  2.00893751 1.72880411 2.40393524
C  2.78203275 1.93002261 1.15716535
C  2.28688952 2.74721383 0.16341232
C  2.39938822 2.33889381 -1.25546599
C  1.16401668 2.76304746 -1.95299984
C  0.61374720 1.96061945 -2.92963741
C  -0.79404308 -2.35864543 -2.57094895
C  -1.11563829 0.36485796 -3.38019254
C  2.91973270 -2.06785566 0.05392983
60
MD Step 12 Units = [Angstroms]
C  -2.91158299 2.06319883 -0.05469481
C  -2.79948627 1.65633452 -1.46851383
C  -3.04355204 0.34987160 -1.83066452
C  -3.41709133 -0.64262952 -0.80479859
C  -3.52175576 -0.26275287 0.51516052
C  -3.26032774 1.13658732 0.90307637
C  -1.84655451 3.04591212 0.22277453
C  -1.07623008 3.24640342 -1.01955901
C  -1.66516339 2.38759399 -2.06483005
C  -0.85023925 1.76388824 -2.98373968
C  -2.17064890 -0.31820279 -2.81491389
C  -2.77505222 -1.92407682 -1.15500882
C  -2.28029780 -2.74063584 -0.16203440
C  -2.39239572 -2.33377349 1.25180527
C  -2.99179848 -1.13736559 1.57875841
C  -2.40284704 -0.27854589 2.62402464
C  -2.56880741 1.12684050 2.20644622
C  -1.57448215 2.04431513 2.46549542
C  -1.20096905 3.03680853 1.43960648
C  0.28854315 3.42448938 -0.96258943
C  0.98004328 3.41473414 0.34076748
C  0.26085330 3.22754972 1.50062422
C  0.79076862 2.35293085 2.56422592
C  -0.34352618 1.62166864 3.16055013
C  -0.18859120 0.30958832 3.55041069
C  -1.25361327 -0.67314189 3.27294641
C  -0.61158090 -1.95461399 2.92272671
C  -1.16142650 -2.75640721 1.94684100
C  -2.00471552 -1.72358219 -2.39734935
C  1.84655660 -3.04591205 -0.22276993
C  1.20096432 -3.03681007 -1.43960970
C  1.57448330 -2.04431457 -2.46549783
C  2.56880881 -1.12684041 -2.20644590
C  3.26032811 -1.13658693 -0.90307652
C  2.79948380 -1.65633484 1.46851294
C  1.66516204 -2.38759473 2.06482891
C  1.07623200 -3.24640322 1.01955614
C  -0.28854140 -3.42449131 0.96258990
C  -0.98004120 -3.41473387 -0.34076815
C  -0.26085059 -3.22754913 -1.50062472
C  0.34352585 -1.62166828 -3.16055008
C  0.18858991 -0.30958793 -3.55040816
C  1.25361160 0.67314062 -3.27294681
C  2.40284779 0.27854565 -2.62402318
C  2.99180182 1.13736451 -1.57875921
C  3.52175624 0.26275254 -0.51515998
C  3.41708870 0.64262943 0.80479862
C  3.04355265 -0.34987139 1.83066176
C  0.85023916 -1.76388821 2.98373964
C  1.11164544 -0.36452880 3.37167650
C  2.17064618 0.31820417 2.81491424
C  2.00471546 1.72358329 2.39734933
C  2.77505179 1.92407751 1.15500827
C  2.28029980 2.74063577 0.16203265
C  2.39240137 2.33377299 -1.25179698
C  1.16141929 2.75641030 -1.94684497
C  0.61158068 1.95461186 -2.92272386
C  -0.79076857 -2.35293037 -2.56422524
C  -1.11164709 0.36452895 -3.37167554
C  2.91158347 -2.06319865 0.05469384
60
MD Step 13 Units = [Angstroms]
C  -2.90302949 2.05882801 -0.05592181
C  -2.79139760 1.65363525 -1.46393299
C  -3.03549166 0.34702499 -1.82612820
C  -3.40749506 -0.64139673 -0.80447527
C  -3.51217064 -0.26147738 0.51563504
C  -3.25181419 1.13211258 0.90196035
C  -1.84238064 3.03750806 0.22040783