60
MD Step 0 Units = [Angstroms / fs]
C  0.00000000 0.00000000 0.00000000
C  0.00000000 0.00000000 0.00000000
C  0.00000000 0.00000000 0.00000000
C  0.00000000 0.00000000 0.00000000
C  0.00000000 0.00000000 0.00000000
C  0.00000000 0.00000000 0.00000000
C  0.00000000 0.00000000 0.00000000
C  0.00000000 0.00000000 0.00000000
C  0.00000000 0.00000000 0.00000000
C  0.00000000 0.00000000 0.00000000
C  0.00000000 0.00000000 0.00000000
C  0.00000000 0.00000000 0.00000000
C  0.00000000 0.00000000 0.00000000
C  0.00000000 0.00000000 0.00000000
C  0.00000000 0.00000000 0.00000000
C  0.00000000 0.00000000 0.00000000
C  0.00000000 0.00000000 0.00000000
C  0.00000000 0.00000000 0.00000000
C  0.00000000 0.00000000 0.00000000
C  0.00000000 0.00000000 0.00000000
C  0.00000000 0.00000000 0.00000000
C  0.00000000 0.00000000 0.00000000
C  0.00000000 0.00000000 0.00000000
C  0.00000000 0.00000000 0.00000000
C  0.00000000 0.00000000 0.00000000
C  0.00000000 0.00000000 0.00000000
C  0.00000000 0.00000000 0.00000000
C  0.00000000 0.00000000 0.00000000
C  0.00000000 0.00000000 0.00000000
C  0.00000000 0.00000000 0.00000000
C  0.00000000 0.00000000 0.00000000
C  0.00000000 0.00000000 0.00000000
C  0.00000000 0.00000000 0.00000000
C  0.00000000 0.00000000 0.00000000
C  0.00000000 0.00000000 0.00000000
C  0.00000000 0.00000000 0.00000000
C  0.00000000 0.00000000 0.00000000
C  0.00000000 0.00000000 0.00000000
C  0.00000000 0.00000000 0.00000000
C  0.00000000 0.00000000 0.00000000
C  0.00000000 0.00000000 0.00000000
C  0.00000000 0.00000000 0.00000000
C  0.00000000 0.00000000 0.00000000
C  0.00000000 0.00000000 0.00000000
C  0.00000000 0.00000000 0.00000000
C  0.00000000 0.00000000 0.00000000
C  0.00000000 0.00000000 0.00000000
C  0.00000000 0.00000000 0.00000000
C  0.00000000 0.00000000 0.00000000
C  0.00000000 0.00000000 0.00000000
C  0.00000000 0.00000000 0.00000000
C  0.00000000 0.00000000 0.00000000
C  0.00000000 0.00000000 0.00000000
C  0.00000000 0.00000000 0.00000000
C  0.00000000 0.00000000 0.00000000
C  0.00000000 0.00000000 0.00000000
C  0.00000000 0.00000000 0.00000000
C  0.00000000 0.00000000 0.00000000
C  0.00000000 0.00000000 0.00000000
C  0.00000000 0.00000000 0.00000000
60
MD Step 1 Units = [Angstroms / fs]
C  0.00012188 -0.00154802 -0.00001086
C  0.00014284 -0.00162672 -0.00028511
C  0.00045638 0.00005277 0.00018051
C  0.00038453 -0.00013977 0.00037914
C  0.00051882 -0.00062721 -0.00131823
C  0.00056964 -0.00035678 -0.00124294
C  0.00032774 -0.00135712 0.00004286
C  0.00047660 -0.00131836 -0.00019808
C  0.00036365 -0.00148557 -0.00040078
C  -0.00068574 -0.00068202 0.00078106
C  0.00062577 -0.00007715 -0.00001072
C  0.00050916 -0.00038713 0.00031205
C  -0.00012738 0.00066156 -0.00096559
C  -0.00014932 0.00073973 -0.00069016
C  0.00062141 -0.00079798 -0.00111166
C  0.00073589 -0.00063153 -0.00090805
C  0.00070367 -0.00035802 -0.00098853
C  -0.00057421 -0.00153832 -0.00132250
C  -0.00050264 -0.00134568 -0.00152180
C  -0.00127769 -0.00154723 -0.00027142
C  -0.00114352 -0.00154914 -0.00001863
C  -0.00021844 -0.00130851 -0.00151051
C  -0.00011641 -0.00147811 -0.00130343
C  -0.00033587 -0.00161976 -0.00118782
C  -0.00053533 0.00006753 -0.00168970
C  -0.00074247 -0.00012379 -0.00174255
C  -0.00061691 -0.00037263 -0.00181059
C  0.00008997 0.00065920 -0.00055667
C  0.00065727 -0.00034959 0.00006969
C  -0.00134597 0.00033874 -0.00106066
C  -0.00051627 0.00032721 0.00050307
C  -0.00044413 0.00051995 0.00030404
C  -0.00172207 -0.00066042 -0.00002989
C  -0.00158805 -0.00066162 0.00022453
C  -0.00116134 0.00060823 -0.00073334
C  -0.00138206 0.00046710 -0.00061771
C  -0.00149496 0.00029995 -0.00082047
C  0.00025941 0.00052876 -0.00074693
C  0.00012514 0.00053073 -0.00099985
C  -0.00079985 0.00029011 0.00049211
C  -0.00068256 0.00060134 0.00016941
C  -0.00048308 -0.00108595 0.00067134
C  -0.00027609 -0.00089462 0.00072389
C  -0.00175418 -0.00038691 -0.00011024
C  -0.00163976 -0.00022054 0.00009316
C  -0.00153723 -0.00039120 0.00029985
C  -0.00140300 -0.00087869 -0.00139755
C  -0.00147454 -0.00107117 -0.00119904
C  -0.00033268 -0.00033637 -0.00179945
C  -0.00028359 -0.00006415 -0.00172310
C  -0.00164428 -0.00094123 -0.00100764
C  -0.00167570 -0.00066879 -0.00108809
C  -0.00152759 -0.00063124 -0.00133052
C  -0.00089098 -0.00168001 -0.00005291
C  -0.00086885 -0.00175815 -0.00032770
C  -0.00110896 -0.00167739 -0.00046221
C  -0.00040140 -0.00064578 0.00079233
C  -0.00090196 0.00045967 0.00028504
C  -0.00073485 -0.00095427 0.00070469
C  -0.00114029 0.00052960 -0.00100760
60
MD Step 2 Units = [Angstroms / fs]
C  0.00048299 -0.00282579 0.00016111
C  0.00052030 -0.00296639 -0.00032896
C  0.00112506 0.00027299 0.00056911
C  0.00099675 -0.00007107 0.00092399
C  0.00125577 -0.00101122 -0.00234985
C  0.00134663 -0.00052816 -0.00221530
C  0.00085072 -0.00248461 0.00025709
C  0.00111664 -0.00241536 -0.00017344
C  0.00091499 -0.00271426 -0.00053563
C  -0.00110903 -0.00116438 0.00174384
C  0.00142775 0.00004075 0.00022733
C  0.00121949 -0.00051290 0.00080425
C  -0.00000827 0.00150975 -0.00166004
C  -0.00004753 0.00164930 -0.00116770
C  0.00143906 -0.00131657 -0.00198070
C  0.00164363 -0.00101916 -0.00161671
C  0.00158606 -0.00053026 -0.00176043
C  -0.00087865 -0.00280681 -0.00240462
C  -0.00075090 -0.00246255 -0.00276080
C  -0.00226700 -0.00285681 -0.00031490
C  -0.00202721 -0.00286022 0.00013679
C  -0.00024297 -0.00239612 -0.00274071
C  -0.00006072 -0.00269915 -0.00237055
C  -0.00045280 -0.00295223 -0.00216396
C  -0.00083754 0.00030214 -0.00313201
C  -0.00120777 -0.00003985 -0.00322626
C  -0.00098324 -0.00048454 -0.00334787
C  0.00038018 0.00150566 -0.00092936
C  0.00148392 -0.00044607 0.00037090
C  -0.00243465 0.00090039 -0.00184019
C  -0.00083435 0.00087817 0.00117593
C  -0.00070548 0.00122262 0.00082024
C  -0.00317032 -0.00105404 0.00017614
C  -0.00293089 -0.00105610 0.00063103
C  -0.00210474 0.00138197 -0.00125538
C  -0.00249927 0.00112988 -0.00104880
C  -0.00270081 0.00083109 -0.00141109
C  0.00068299 0.00127242 -0.00126925
C  0.00044301 0.00127595 -0.00172119
C  -0.00134108 0.00081186 0.00115648
C  -0.00113150 0.00136795 0.00057970
C  -0.00074673 -0.00188643 0.00154784
C  -0.00037679 -0.00154443 0.00164151
C  -0.00322767 -0.00056516 0.00003267
C  -0.00302320 -0.00026791 0.00039625
C  -0.00284003 -0.00057305 0.00076564
C  -0.00258113 -0.00151329 -0.00250827
C  -0.00270884 -0.00185722 -0.00215360
C  -0.00047525 -0.00041985 -0.00332807
C  -0.00038776 0.00006671 -0.00319146
C  -0.00301222 -0.00162497 -0.00181150
C  -0.00306823 -0.00113815 -0.00195517
C  -0.00280380 -0.00107129 -0.00238863
C  -0.00157591 -0.00309410 0.00007561
C  -0.00153628 -0.00323359 -0.00041551
C  -0.00196558 -0.00308950 -0.00065581
C  -0.00060086 -0.00109974 0.00176389
C  -0.00152346 0.00111483 0.00078632
C  -0.00119656 -0.00165100 0.00160721
C  -0.00206726 0.00124151 -0.00174547
60
MD Step 3 Units = [Angstroms / fs]
C  0.00112588 -0.00376256 0.00050647
C  0.00117069 -0.00393279 -0.00008722
C  0.00202381 0.00063706 0.00117966
C  0.00186864 0.00022027 0.00160944
C  0.00223405 -0.00110601 -0.00300900
C  0.00234421 -0.00052123 -0.00284595
C  0.00157101 -0.00334906 0.00062272
C  0.00189294 -0.00326521 0.00010116
C  0.00164916 -0.00362762 -0.00033753
C  -0.00120615 -0.00144114 0.00287803
C  0.00239058 0.00035556 0.00076541
C  0.00213859 -0.00031451 0.00146477
C  0.00040649 0.00253879 -0.00201166
C  0.00035879 0.00270747 -0.00141472
C  0.00245597 -0.00147643 -0.00256169
C  0.00270385 -0.00111620 -0.00212035
C  0.00263414 -0.00052353 -0.00229417
C  -0.00084280 -0.00373509 -0.00320303
C  -0.00068841 -0.00331796 -0.00363468
C  -0.00288044 -0.00388798 -0.00009841
C  -0.00258985 -0.00389212 0.00044875
C  -0.00007282 -0.00323743 -0.00361059
C  0.00014772 -0.00360450 -0.00316180
C  -0.00032705 -0.00391096 -0.00291153
C  -0.00086986 0.00067992 -0.00427724
C  -0.00131859 0.00026531 -0.00439091
C  -0.00104613 -0.00027350 -0.00453832
C  0.00087729 0.00253419 -0.00112656
C  0.00245829 -0.00023421 0.00093908
C  -0.00320716 0.00171250 -0.00225770
C  -0.00094959 0.00168120 0.00199724
C  -0.00079362 0.00209858 0.00156626
C  -0.00427073 -0.00111314 0.00065754
C  -0.00398081 -0.00111537 0.00120932
C  -0.00280754 0.00229598 -0.00154949
C  -0.00328580 0.00199086 -0.00129930
C  -0.00352941 0.00162860 -0.00173814
C  0.00124418 0.00225119 -0.00153805
C  0.00095334 0.00225551 -0.00208555
C  -0.00156348 0.00160084 0.00197401
C  -0.00130961 0.00227433 0.00127493
C  -0.00076676 -0.00231657 0.00264077
C  -0.00031843 -0.00190194 0.00275360
C  -0.00434016 -0.00052049 0.00048403
C  -0.00409239 -0.00016048 0.00092483
C  -0.00387066 -0.00053061 0.00137248
C  -0.00350541 -0.00185701 -0.00324607
C  -0.00365972 -0.00227363 -0.00281659
C  -0.00043049 -0.00019543 -0.00451459
C  -0.00032514 0.00039436 -0.00434866
C  -0.00402748 -0.00199209 -0.00240190
C  -0.00409496 -0.00140234 -0.00257569
C  -0.00377526 -0.00132200 -0.00310154
C  -0.00204298 -0.00417552 0.00037482
C  -0.00199476 -0.00434411 -0.00022038
C  -0.00251550 -0.00417017 -0.00051132
C  -0.00059025 -0.00136314 0.00290210
C  -0.00178423 0.00196781 0.00152524
C  -0.00131154 -0.00203100 0.00271207
C  -0.00276250 0.00212592 -0.00214321
60
MD Step 4 Units = [Angstroms / fs]
C  0.00161181 -0.00476945 0.00054356
C  0.00165168 -0.00492400 0.00000384
C  0.00269248 0.00065139 0.00154940
C  0.00255200 0.00027253 0.00193981
C  0.00299783 -0.00134555 -0.00369481
C  0.00309817 -0.00081489 -0.00354644
C  0.00201568 -0.00439316 0.00064917
C  0.00230785 -0.00431702 0.00017506
C  0.00208736 -0.00464717 -0.00022355
C  -0.00139617 -0.00197951 0.00369928
C  0.00302607 0.00039511 0.00117240
C  0.00279766 -0.00021256 0.00180916
C  0.00068431 0.00326839 -0.00243223
C  0.00064063 0.00342089 -0.00188849
C  0.00319930 -0.00168339 -0.00328794
C  0.00342475 -0.00135609 -0.00288586
C  0.00336145 -0.00081642 -0.00304327
C  -0.00088040 -0.00473462 -0.00415226
C  -0.00074085 -0.00435527 -0.00454500
C  -0.00351586 -0.00507686 -0.00006844
C  -0.00325147 -0.00508063 0.00042886
C  -0.00018070 -0.00428194 -0.00452364
C  0.00001929 -0.00461554 -0.00411488
C  -0.00041186 -0.00489385 -0.00388738
C  -0.00107421 0.00070698 -0.00555371
C  -0.00148260 0.00032938 -0.00565591
C  -0.00123393 -0.00016065 -0.00579010
C  0.00111274 0.00326497 -0.00162779
C  0.00308687 -0.00014102 0.00132969
C  -0.00408502 0.00232333 -0.00271709
C  -0.00133072 0.00228520 0.00247415
C  -0.00118926 0.00266485 0.00208217
C  -0.00543128 -0.00125353 0.00097338
C  -0.00516804 -0.00125498 0.00147655
C  -0.00372184 0.00285388 -0.00207384
C  -0.00415728 0.00257710 -0.00184659
C  -0.00437755 0.00224714 -0.00224538
C  0.00144639 0.00300676 -0.00200127
C  0.00118173 0.00301075 -0.00249896
C  -0.00188881 0.00221208 0.00245378
C  -0.00165808 0.00282395 0.00181751
C  -0.00099569 -0.00277689 0.00348401
C  -0.00058775 -0.00239929 0.00358514
C  -0.00549428 -0.00071389 0.00081632
C  -0.00526893 -0.00038684 0.00121777
C  -0.00506770 -0.00072435 0.00162503
C  -0.00462208 -0.00234256 -0.00400971
C  -0.00476147 -0.00272123 -0.00361967
C  -0.00067373 -0.00009032 -0.00576911
C  -0.00057939 0.00044659 -0.00561729
C  -0.00509628 -0.00246490 -0.00324214
C  -0.00515682 -0.00192878 -0.00339957
C  -0.00486760 -0.00185720 -0.00387923
C  -0.00275403 -0.00533841 0.00036208
C  -0.00270974 -0.00549081 -0.00017953
C  -0.00318457 -0.00533402 -0.00044364
C  -0.00083570 -0.00190929 0.00372068
C  -0.00208905 0.00254558 0.00204506
C  -0.00149059 -0.00251651 0.00354744
C  -0.00368168 0.00269954 -0.00261359
60
MD Step 5 Units = [Angstroms / fs]
C  0.00266852 -0.00509245 0.00097062
C  0.00268843 -0.00517655 0.00067541
C  0.00384244 0.00100560 0.00238905
C  0.00376688 0.00079847 0.00260192
C  0.00426127 -0.00099566 -0.00364582
C  0.00431658 -0.00070752 -0.00356437
C  0.00288769 -0.00488579 0.00102826
C  0.00304643 -0.00484436 0.00076899
C  0.00292829 -0.00502643 0.00055139
C  -0.00093426 -0.00206835 0.00490069
C  0.00402525 0.00086463 0.00218190
C  0.00390180 0.00053550 0.00253238
C  0.00155825 0.00439497 -0.00217064
C  0.00153367 0.00447653 -0.00187085
C  0.00437086 -0.00118289 -0.00342277
C  0.00449440 -0.00100422 -0.00320093
C  0.00445992 -0.00070711 -0.00328571
C  -0.00024331 -0.00505169 -0.00451563
C  -0.00016875 -0.00484388 -0.00473117
C  -0.00341109 -0.00568693 0.00049895
C  -0.00326601 -0.00568901 0.00077073
C  0.00013880 -0.00480350 -0.00472068
C  0.00024707 -0.00498576 -0.00449540
C  0.00001226 -0.00513734 -0.00437101
C  -0.00072234 0.00107265 -0.00621885
C  -0.00094673 0.00086461 -0.00627226
C  -0.00080853 0.00059614 -0.00634607
C  0.00179356 0.00439479 -0.00173105
C  0.00405688 0.00057140 0.00226665
C  -0.00432234 0.00345062 -0.00246132
C  -0.00126834 0.00340844 0.00329497
C  -0.00119167 0.00361658 0.00308017
C  -0.00589506 -0.00072817 0.00185048
C  -0.00575177 -0.00072769 0.00212914
C  -0.00412395 0.00374110 -0.00211075
C  -0.00436356 0.00359102 -0.00198687
C  -0.00448142 0.00340914 -0.00220467
C  0.00197631 0.00425147 -0.00193400
C  0.00183097 0.00425380 -0.00220616
C  -0.00157361 0.00336831 0.00328548
C  -0.00144754 0.00370210 0.00293580
C  -0.00071292 -0.00250789 0.00478386
C  -0.00048896 -0.00229989 0.00483602
C  -0.00592926 -0.00043109 0.00176608
C  -0.00580576 -0.00025269 0.00198728
C  -0.00569645 -0.00043959 0.00221071
C  -0.00520233 -0.00223383 -0.00403715
C  -0.00527661 -0.00244078 -0.00382468
C  -0.00050097 0.00063318 -0.00633586
C  -0.00045250 0.00092852 -0.00625068
C  -0.00546083 -0.00229974 -0.00361698
C  -0.00549214 -0.00200653 -0.00370187
C  -0.00533708 -0.00197059 -0.00396778
C  -0.00299327 -0.00583032 0.00073512
C  -0.00296803 -0.00591179 0.00043774
C  -0.00323094 -0.00582899 0.00029411
C  -0.00062644 -0.00203145 0.00491135
C  -0.00168217 0.00355047 0.00306027
C  -0.00098283 -0.00236377 0.00481551
C  -0.00410372 0.00365721 -0.00240600
60
MD Step 6 Units = [Angstroms / fs]
C  0.00371684 -0.00528706 0.00119664
C  0.00370047 -0.00524123 0.00135279
C  0.00488492 0.00110446 0.00311156
C  0.00492883 0.00121431 0.00299690
C  0.00543632 -0.00062721 -0.00341598
C  0.00540838 -0.00078611 -0.00345814
C  0.00359556 -0.00539379 0.00116573
C  0.00350830 -0.00541636 0.00130306
C  0.00357837 -0.00532463 0.00141950
C  -0.00038622 -0.00228815 0.00588315
C  0.00478930 0.00117660 0.00321827
C  0.00485913 0.00136066 0.00303957
C  0.00245329 0.00532175 -0.00178789
C  0.00246416 0.00527293 -0.00193917
C  0.00537650 -0.00053567 -0.00353243
C  0.00531186 -0.00063128 -0.00364390
C  0.00533054 -0.00078251 -0.00359498
C  0.00050327 -0.00524197 -0.00485782
C  0.00045838 -0.00535092 -0.00474602
C  -0.00312007 -0.00628130 0.00102582
C  -0.00319537 -0.00628025 0.00088134
C  0.00029928 -0.00537145 -0.00475522
C  0.00023860 -0.00527441 -0.00486919
C  0.00036591 -0.00519224 -0.00493512
C  -0.00038837 0.00118148 -0.00683210
C  -0.00027280 0.00128691 -0.00679619
C  -0.00033920 0.00142756 -0.00675841
C  0.00233179 0.00532704 -0.00202173
C  0.00476755 0.00133175 0.00316949
C  -0.00447961 0.00450923 -0.00204816
C  -0.00134489 0.00446610 0.00386055
C  -0.00138763 0.00435748 0.00397296
C  -0.00621500 -0.00010212 0.00271040
C  -0.00629292 -0.00009845 0.00257354
C  -0.00458536 0.00435644 -0.00223750
C  -0.00446303 0.00443986 -0.00230432
C  -0.00439263 0.00453178 -0.00218810
C  0.00223588 0.00539645 -0.00191026
C  0.00231101 0.00539566 -0.00176611
C  -0.00118345 0.00448690 0.00387063
C  -0.00125054 0.00430764 0.00405054
C  -0.00049627 -0.00206608 0.00594778
C  -0.00061220 -0.00217159 0.00591049
C  -0.00619613 -0.00025340 0.00275964
C  -0.00626072 -0.00034924 0.00264761
C  -0.00632086 -0.00025742 0.00253149
C  -0.00581367 -0.00209901 -0.00388149
C  -0.00576835 -0.00198902 -0.00399656
C  -0.00049836 0.00140359 -0.00676770
C  -0.00053359 0.00125248 -0.00680621
C  -0.00567424 -0.00206106 -0.00410273
C  -0.00565216 -0.00221624 -0.00405408
C  -0.00574376 -0.00224513 -0.00392432
C  -0.00333765 -0.00620645 0.00090301
C  -0.00334788 -0.00615758 0.00105682
C  -0.00321860 -0.00621043 0.00113536
C  -0.00054519 -0.00231229 0.00587430
C  -0.00112308 0.00438978 0.00398469
C  -0.00035112 -0.00213709 0.00592170
C  -0.00460138 0.00440246 -0.00208138
60
MD Step 7 Units = [Angstroms / fs]
C  0.00424126 -0.00584904 0.00071557
C  0.00417262 -0.00561494 0.00152602
C  0.00530325 0.00044308 0.00320476
C  0.00552012 0.00101241 0.00261543
C  0.00600466 -0.00074551 -0.00350652
C  0.00585595 -0.00155212 -0.00372793
C  0.00362674 -0.00641022 0.00055631
C  0.00318305 -0.00652553 0.00126856
C  0.00352552 -0.00603662 0.00186917
C  -0.00025910 -0.00313760 0.00612943
C  0.00480395 0.00082429 0.00376661
C  0.00515371 0.00175173 0.00282043
C  0.00285651 0.00553256 -0.00178821
C  0.00291888 0.00529507 -0.00259378
C  0.00569934 -0.00024947 -0.00411521
C  0.00536186 -0.00074261 -0.00471017
C  0.00545759 -0.00154410 -0.00446766
C  0.00084970 -0.00580130 -0.00567380
C  0.00063196 -0.00636950 -0.00508736
C  -0.00314484 -0.00735136 0.00100380
C  -0.00353970 -0.00734577 0.00025594
C  -0.00020380 -0.00647839 -0.00512490
C  -0.00050921 -0.00597649 -0.00573097
C  0.00014286 -0.00555557 -0.00607275
C  -0.00057759 0.00052841 -0.00788412
C  0.00003098 0.00108850 -0.00771916
C  -0.00033239 0.00182230 -0.00751952
C  0.00221759 0.00554548 -0.00299819
C  0.00470511 0.00162940 0.00352450
C  -0.00505377 0.00498276 -0.00198180
C  -0.00206124 0.00494182 0.00365925
C  -0.00227696 0.00437391 0.00424606
C  -0.00688486 0.00011662 0.00304025
C  -0.00728334 0.00012469 0.00230046
C  -0.00560035 0.00418735 -0.00295358
C  -0.00495307 0.00460901 -0.00329680
C  -0.00461022 0.00509808 -0.00269642
C  0.00171771 0.00592364 -0.00243116
C  0.00211251 0.00591831 -0.00168352
C  -0.00122325 0.00505097 0.00369741
C  -0.00157033 0.00412812 0.00464531
C  -0.00084995 -0.00195586 0.00645695
C  -0.00145872 -0.00251609 0.00629054
C  -0.00678909 -0.00068492 0.00328297
C  -0.00712638 -0.00117824 0.00268759
C  -0.00743204 -0.00068200 0.00207915
C  -0.00694784 -0.00243994 -0.00404288
C  -0.00672949 -0.00187052 -0.00463259
C  -0.00116832 0.00171015 -0.00755687
C  -0.00132434 0.00091156 -0.00777507
C  -0.00623172 -0.00225161 -0.00519397
C  -0.00613256 -0.00305676 -0.00495195
C  -0.00658120 -0.00317910 -0.00424800
C  -0.00428371 -0.00696010 0.00036050
C  -0.00434553 -0.00672260 0.00116854
C  -0.00364718 -0.00697159 0.00156903
C  -0.00109496 -0.00324997 0.00609248
C  -0.00091817 0.00454902 0.00430360
C  -0.00010326 -0.00233903 0.00634772
C  -0.00566863 0.00442158 -0.00214315
60
MD Step 8 Units = [Angstroms / fs]
C  0.00513182 -0.00587389 0.00045074
C  0.00499706 -0.00540087 0.00209169
C  0.00599592 -0.00004804 0.00357457
C  0.00643217 0.00110453 0.00238285
C  0.00686038 -0.00044863 -0.00302618
C  0.00655834 -0.00207712 -0.00347513
C  0.00389142 -0.00701199 0.00012858
C  0.00299542 -0.00724500 0.00157058
C  0.00368338 -0.00625178 0.00278569
C  0.00033964 -0.00368999 0.00654857
C  0.00498417 0.00072560 0.00471426
C  0.00568910 0.00259625 0.00279367
C  0.00365870 0.00593601 -0.00127852
C  0.00378651 0.00545928 -0.00291485
C  0.00624352 0.00056113 -0.00425974
C  0.00555969 -0.00043656 -0.00546861
C  0.00575318 -0.00206364 -0.00498054
C  0.00168245 -0.00582515 -0.00604704
C  0.00124550 -0.00697632 -0.00485802
C  -0.00259587 -0.00797486 0.00133651
C  -0.00339642 -0.00796349 -0.00017720
C  -0.00044928 -0.00719738 -0.00493142
C  -0.00106518 -0.00618161 -0.00616230
C  0.00025282 -0.00533082 -0.00685423
C  -0.00038427 0.00004390 -0.00845527
C  0.00085017 0.00118125 -0.00812679
C  0.00010962 0.00266799 -0.00772166
C  0.00236290 0.00595844 -0.00372750
C  0.00478767 0.00235570 0.00422691
C  -0.00513704 0.00576608 -0.00137285
C  -0.00249297 0.00573024 0.00361184
C  -0.00292817 0.00457930 0.00480088
C  -0.00699882 0.00081777 0.00373473
C  -0.00780413 0.00083127 0.00222925
C  -0.00624316 0.00415494 -0.00333765
C  -0.00492937 0.00500580 -0.00403167
C  -0.00424100 0.00599912 -0.00281676
C  0.00135020 0.00672873 -0.00258235
C  0.00215084 0.00671761 -0.00106871
C  -0.00079624 0.00595155 0.00368548
C  -0.00149868 0.00408496 0.00560837
C  -0.00086171 -0.00128974 0.00720970
C  -0.00209615 -0.00242731 0.00687976
C  -0.00680547 -0.00080937 0.00422288
C  -0.00748895 -0.00180715 0.00301382
C  -0.00810615 -0.00079732 0.00178037
C  -0.00767830 -0.00235042 -0.00362870
C  -0.00724054 -0.00119785 -0.00482075
C  -0.00158545 0.00244408 -0.00779446
C  -0.00189442 0.00082344 -0.00824102
C  -0.00623029 -0.00197134 -0.00596009
C  -0.00603348 -0.00360148 -0.00547278
C  -0.00693497 -0.00384209 -0.00403959
C  -0.00490430 -0.00718192 0.00003245
C  -0.00503170 -0.00670524 0.00167106
C  -0.00361066 -0.00720283 0.00248010
C  -0.00135551 -0.00391415 0.00647609
C  -0.00018066 0.00493577 0.00491651
C  0.00064840 -0.00206932 0.00699527
C  -0.00637758 0.00462801 -0.00169671
60
MD Step 9 Units = [Angstroms / fs]
C  0.00603657 -0.00570525 0.00010783
C  0.00582582 -0.00495710 0.00270524
C  0.00662936 -0.00064979 0.00389783
C  0.00731817 0.00117447 0.00201242
C  0.00766284 -0.00007517 -0.00233968
C  0.00718419 -0.00265002 -0.00305070
C  0.00407548 -0.00750785 -0.00040195
C  0.00265864 -0.00787638 0.00188049
C  0.00374431 -0.00630226 0.00380327
C  0.00105414 -0.00424053 0.00682916
C  0.00502739 0.00057588 0.00570309
C  0.00614126 0.00353254 0.00266012
C  0.00450659 0.00621865 -0.00061667
C  0.00470982 0.00546656 -0.00320999
C  0.00668723 0.00152643 -0.00429297
C  0.00560450 -0.00005230 -0.00620898
C  0.00591056 -0.00263037 -0.00543823
C  0.00263598 -0.00565696 -0.00629745
C  0.00194674 -0.00747957 -0.00441439
C  -0.00184052 -0.00846392 0.00169195
C  -0.00310836 -0.00844589 -0.00070377
C  -0.00073746 -0.00782985 -0.00452899
C  -0.00171084 -0.00622225 -0.00647963
C  0.00037400 -0.00487647 -0.00757479
C  -0.00013936 -0.00055299 -0.00886384
C  0.00181596 0.00124932 -0.00834724
C  0.00064086 0.00360325 -0.00770539
C  0.00245421 0.00625189 -0.00449258
C  0.00471855 0.00315608 0.00493343
C  -0.00506515 0.00651806 -0.00058665
C  -0.00293770 0.00648968 0.00342481
C  -0.00362560 0.00466723 0.00530748
C  -0.00689999 0.00164069 0.00444861
C  -0.00817379 0.00166032 0.00206098
C  -0.00681568 0.00396745 -0.00369501
C  -0.00473416 0.00531250 -0.00479298
C  -0.00364806 0.00688667 -0.00287038
C  0.00085087 0.00747398 -0.00268170
C  0.00211897 0.00745617 -0.00028589
C  -0.00025198 0.00684018 0.00353918
C  -0.00136366 0.00388679 0.00658509
C  -0.00085049 -0.00043668 0.00787444
C  -0.00280556 -0.00223927 0.00735642
C  -0.00659427 -0.00093743 0.00521928
C  -0.00767647 -0.00251614 0.00330333
C  -0.00865242 -0.00091463 0.00135000
C  -0.00830813 -0.00216414 -0.00300210
C  -0.00761785 -0.00033996 -0.00488774
C  -0.00204377 0.00325075 -0.00781891
C  -0.00252861 0.00068322 -0.00852867
C  -0.00601726 -0.00156546 -0.00669283
C  -0.00570816 -0.00414571 -0.00592314
C  -0.00713093 -0.00452227 -0.00364979
C  -0.00549602 -0.00720833 -0.00037315
C  -0.00569903 -0.00645638 0.00222209
C  -0.00344542 -0.00724002 0.00350161
C  -0.00163073 -0.00459333 0.00671584
C  0.00072111 0.00523263 0.00549000
C  0.00153875 -0.00167292 0.00753911
C  -0.00702614 0.00471555 -0.00109759
60
MD Step 10 Units = [Angstroms / fs]
C  0.00679510 -0.00550129 -0.00039383
C  0.00650419 -0.00446243 0.00321429
C  0.00707078 -0.00142376 0.00405465
C  0.00802638 0.00111035 0.00143630
C  0.00826968 0.00022892 -0.00163334
C  0.00760438 -0.00334582 -0.00262129
C  0.00407253 -0.00800612 -0.00110189
C  0.00210534 -0.00851786 0.00206869
C  0.00361117 -0.00632980 0.00473923
C  0.00171399 -0.00487494 0.00687111
C  0.00484504 0.00027968 0.00656336
C  0.00639099 0.00438374 0.00233418
C  0.00523660 0.00627691 0.00002260
C  0.00551953 0.00523398 -0.00358219
C  0.00691497 0.00245610 -0.00434725
C  0.00541070 0.00026337 -0.00701063
C  0.00583570 -0.00331978 -0.00594127
C  0.00352703 -0.00545461 -0.00654884
C  0.00257132 -0.00798678 -0.00393229
C  -0.00106858 -0.00893269 0.00193541
C  -0.00283028 -0.00890761 -0.00139234
C  -0.00115851 -0.00847363 -0.00409037
C  -0.00250956 -0.00624060 -0.00680173
C  0.00038552 -0.00437185 -0.00832295
C  0.00002238 -0.00132370 -0.00923337
C  0.00273952 0.00118136 -0.00851813
C  0.00110511 0.00445172 -0.00762608
C  0.00238464 0.00632145 -0.00536121
C  0.00441760 0.00386388 0.00549548
C  -0.00498410 0.00709463 0.00019102
C  -0.00348352 0.00707527 0.00302152
C  -0.00443838 0.00454314 0.00563723
C  -0.00674676 0.00240844 0.00502999
C  -0.00851563 0.00243444 0.00170991
C  -0.00741563 0.00355123 -0.00412570
C  -0.00452270 0.00541845 -0.00565050
C  -0.00301647 0.00760646 -0.00298009
C  0.00015711 0.00802113 -0.00284690
C  0.00191924 0.00799622 0.00048111
C  0.00024730 0.00756229 0.00317886
C  -0.00129682 0.00346052 0.00741159
C  -0.00093392 0.00041239 0.00832229
C  -0.00365056 -0.00209302 0.00760572
C  -0.00632230 -0.00117474 0.00609911
C  -0.00782590 -0.00336731 0.00343608
C  -0.00918090 -0.00114040 0.00072195
C  -0.00893797 -0.00202162 -0.00234765
C  -0.00798099 0.00051231 -0.00496610
C  -0.00262528 0.00396344 -0.00778255
C  -0.00329576 0.00039516 -0.00877062
C  -0.00575647 -0.00119095 -0.00747484
C  -0.00532883 -0.00477519 -0.00640685
C  -0.00730229 -0.00529519 -0.00324542
C  -0.00614768 -0.00718819 -0.00093398
C  -0.00643065 -0.00614548 0.00267226
C  -0.00329703 -0.00723120 0.00444892
C  -0.00201678 -0.00536354 0.00671470
C  0.00159811 0.00532937 0.00589041
C  0.00238423 -0.00130653 0.00785941
C  -0.00770631 0.00458993 -0.00051754
60
MD Step 11 Units = [Angstroms / fs]
C  0.00729060 -0.00538159 -0.00107469
C  0.00692233 -0.00406172 0.00351045
C  0.00723794 -0.00236702 0.00397762
C  0.00845136 0.00085336 0.00065087
C  0.00858729 0.00036188 -0.00106014
C  0.00774155 -0.00417925 -0.00231577
C  0.00383200 -0.00856527 -0.00197445
C  0.00133283 -0.00921544 0.00205469
C  0.00324473 -0.00643386 0.00544801
C  0.00218761 -0.00562196 0.00663299
C  0.00440911 -0.00020164 0.00716648
C  0.00637277 0.00501140 0.00179045
C  0.00572721 0.00606471 0.00050151
C  0.00608721 0.00474078 -0.00408128
C  0.00686612 0.00319398 -0.00450942
C  0.00495433 0.00040771 -0.00789534
C  0.00549427 -0.00414717 -0.00653743
C  0.00420874 -0.00533724 -0.00687830
C  0.00299560 -0.00855538 -0.00355262
C  -0.00043711 -0.00944731 0.00197995
C  -0.00267630 -0.00941541 -0.00224878
C  -0.00174511 -0.00917429 -0.00375269
C  -0.00346117 -0.00633660 -0.00719955
C  0.00021709 -0.00396243 -0.00913261
C  0.00001312 -0.00226518 -0.00964185
C  0.00346675 0.00091932 -0.00873475
C  0.00138822 0.00507563 -0.00760075
C  0.00210225 0.00612006 -0.00634003
C  0.00386713 0.00435312 0.00581041
C  -0.00499804 0.00739950 0.00080870
C  -0.00416155 0.00738969 0.00238807
C  -0.00537439 0.00417148 0.00571251
C  -0.00665956 0.00298160 0.00537191
C  -0.00890701 0.00301363 0.00115016
C  -0.00808792 0.00289639 -0.00467606
C  -0.00441050 0.00526833 -0.00661342
C  -0.00249827 0.00804978 -0.00322016
C  -0.00072875 0.00828157 -0.00314574
C  0.00151103 0.00824979 0.00108340
C  0.00057954 0.00800870 0.00258691
C  -0.00138259 0.00279687 0.00796701
C  -0.00117892 0.00109964 0.00847651
C  -0.00463180 -0.00208526 0.00756820
C  -0.00612032 -0.00157328 0.00672944
C  -0.00803130 -0.00435926 0.00334414
C  -0.00975272 -0.00152761 -0.00010552
C  -0.00961714 -0.00201881 -0.00181646
C  -0.00840249 0.00120130 -0.00514316
C  -0.00335315 0.00445619 -0.00779869
C  -0.00420288 -0.00007964 -0.00905595
C  -0.00557468 -0.00096391 -0.00833227
C  -0.00503257 -0.00551869 -0.00697601
C  -0.00753827 -0.00617715 -0.00295583
C  -0.00689253 -0.00723015 -0.00166699
C  -0.00725285 -0.00590653 0.00291664
C  -0.00326831 -0.00728407 0.00517387
C  -0.00255426 -0.00624174 0.00643497
C  0.00229544 0.00517118 0.00603398
C  0.00303714 -0.00108595 0.00789051
C  -0.00845603 0.00421599 -0.00009086
60
MD Step 12 Units = [Angstroms / fs]
C  0.00784797 -0.00502708 -0.00150565
C  0.00741273 -0.00346342 0.00392705
C  0.00749380 -0.00302497 0.00404528
C  0.00893077 0.00079083 0.00010416
C  0.00896638 0.00066369 -0.00033686
C  0.00796411 -0.00471560 -0.00182465
C  0.00375092 -0.00879965 -0.00257171
C  0.00079029 -0.00956989 0.00220222
C  0.00305439 -0.00627341 0.00622246
C  0.00278249 -0.00606263 0.00652251
C  0.00414165 -0.00045877 0.00782433
C  0.00646772 0.00571611 0.00145326
C  0.00629778 0.00598455 0.00112036
C  0.00672464 0.00441698 -0.00431108
C  0.00692726 0.00402075 -0.00442418
C  0.00466193 0.00071957 -0.00843697
C  0.00530157 -0.00467843 -0.00682886
C  0.00497229 -0.00498534 -0.00692034
C  0.00353599 -0.00879860 -0.00297939
C  0.00033277 -0.00963079 0.00218219
C  -0.00232076 -0.00959296 -0.00282812
C  -0.00208176 -0.00953210 -0.00321585
C  -0.00411437 -0.00616978 -0.00730091
C  0.00024321 -0.00335733 -0.00959118
C  0.00018804 -0.00292264 -0.00972540
C  0.00428062 0.00085135 -0.00865200
C  0.00181672 0.00577629 -0.00730802
C  0.00200219 0.00604916 -0.00698583
C  0.00350041 0.00493798 0.00621839
C  -0.00477083 0.00778020 0.00155172
C  -0.00455512 0.00777934 0.00196159
C  -0.00599163 0.00396587 0.00590097
C  -0.00632053 0.00365921 0.00580968
C  -0.00898319 0.00369630 0.00080539
C  -0.00843189 0.00244455 -0.00494628
C  -0.00407381 0.00525431 -0.00724143
C  -0.00180948 0.00855056 -0.00322118
C  -0.00135242 0.00861147 -0.00320169
C  0.00130183 0.00857368 0.00180917
C  0.00106239 0.00851285 0.00219641
C  -0.00126233 0.00233812 0.00857192
C  -0.00120750 0.00190345 0.00870638
C  -0.00529913 -0.00187095 0.00763191
C  -0.00568170 -0.00173875 0.00741730
C  -0.00794615 -0.00503952 0.00340536
C  -0.00998543 -0.00168308 -0.00068248
C  -0.00995015 -0.00180988 -0.00112340
C  -0.00851213 0.00200558 -0.00506431
C  -0.00380170 0.00504317 -0.00754188
C  -0.00480678 -0.00033218 -0.00903283
C  -0.00516077 -0.00056049 -0.00884385
C  -0.00451948 -0.00595722 -0.00723763
C  -0.00748684 -0.00673556 -0.00247220
C  -0.00731678 -0.00700357 -0.00213935
C  -0.00774425 -0.00543638 0.00329227
C  -0.00302129 -0.00706691 0.00596638
C  -0.00283651 -0.00679607 0.00628845
C  0.00309495 0.00515075 0.00628167
C  0.00378741 -0.00068704 0.00801374
C  -0.00886704 0.00400782 0.00048649
60
MD Step 13 Units = [Angstroms / fs]
C  0.00825354 -0.00465792 -0.00179945
C  0.00776909 -0.00291446 0.00425837
C  0.00766173 -0.00348567 0.00409597