60
geometry.out	Energy: -1416465.3074542
C         -2.96219        2.11017       -0.06479
C         -2.84897        1.69937       -1.49226
C         -3.10217        0.34396       -1.86797
C         -3.47934       -0.65813       -0.83219
C         -3.58792       -0.26405        0.53723
C         -3.32398        1.14884        0.92888
C         -1.88684        3.10235        0.21536
C         -1.10906        3.30478       -1.03897
C         -1.70372        2.43771       -2.09435
C         -0.85822        1.79058       -3.04767
C         -2.22085       -0.33055       -2.86170
C         -2.83112       -1.95199       -1.18582
C         -2.31780       -2.79909       -0.15561
C         -2.43096       -2.38826        1.27184
C         -3.05283       -1.14706        1.61109
C         -2.45819       -0.27994        2.66641
C         -2.62576        1.13898        2.24477
C         -1.59421        2.09085        2.51357
C         -1.21706        3.09292        1.47779
C          0.30684        3.48954       -0.97986
C          1.00500        3.47969        0.33609
C          0.25886        3.28550        1.53942
C          0.79390        2.40243        2.61326
C         -0.35136        1.66409        3.21534
C         -0.19060        0.30286        3.61984
C         -1.26589       -0.68933        3.33964
C         -0.61770       -1.98317        2.98605
C         -1.18815       -2.81505        1.97364
C         -2.05328       -1.74949       -2.44008
C          1.88684       -3.10235       -0.21537
C          1.21707       -3.09292       -1.47779
C          1.59421       -2.09085       -2.51357
C          2.62576       -1.13898       -2.24477
C          3.32398       -1.14884       -0.92888
C          2.84897       -1.69937        1.49226
C          1.70372       -2.43771        2.09435
C          1.10906       -3.30478        1.03897
C         -0.30684       -3.48954        0.97986
C         -1.00500       -3.47969       -0.33609
C         -0.25886       -3.28550       -1.53942
C          0.35136       -1.66409       -3.21534
C          0.19060       -0.30286       -3.61984
C          1.26589        0.68933       -3.33963
C          2.45819        0.27994       -2.66641
C          3.05283        1.14706       -1.61109
C          3.58792        0.26405       -0.53723
C          3.47934        0.65813        0.83219
C          3.10216       -0.34396        1.86797
C          0.85822       -1.79058        3.04767
C          1.12220       -0.37774        3.43932
C          2.22085        0.33055        2.86170
C          2.05328        1.74949        2.44008
C          2.83112        1.95199        1.18582
C          2.31780        2.79909        0.15561
C          2.43096        2.38826       -1.27185
C          1.18816        2.81504       -1.97363
C          0.61770        1.98317       -2.98605
C         -0.79390       -2.40243       -2.61326
C         -1.12220        0.37774       -3.43932
C          2.96219       -2.11017        0.06479