 Entering Gaussian System, Link 0=g16
 Initial command:
 /software/gaussian/g16-c01/avx/g16/l1.exe "/gpfs/fs2/scratch/bweight/software/SQD/examples/Fullerene_O_Dye/GS_OPT_wB97XD/Gau-30488.inp" -scrdir="/gpfs/fs2/scratch/bweight/software/SQD/examples/Fullerene_O_Dye/GS_OPT_wB97XD/"
 Entering Link 1 = /software/gaussian/g16-c01/avx/g16/l1.exe PID=     30492.
  
 Copyright (c) 1988-2019, Gaussian, Inc.  All Rights Reserved.
  
 This is part of the Gaussian(R) 16 program.  It is based on
 the Gaussian(R) 09 system (copyright 2009, Gaussian, Inc.),
 the Gaussian(R) 03 system (copyright 2003, Gaussian, Inc.),
 the Gaussian(R) 98 system (copyright 1998, Gaussian, Inc.),
 the Gaussian(R) 94 system (copyright 1995, Gaussian, Inc.),
 the Gaussian 92(TM) system (copyright 1992, Gaussian, Inc.),
 the Gaussian 90(TM) system (copyright 1990, Gaussian, Inc.),
 the Gaussian 88(TM) system (copyright 1988, Gaussian, Inc.),
 the Gaussian 86(TM) system (copyright 1986, Carnegie Mellon
 University), and the Gaussian 82(TM) system (copyright 1983,
 Carnegie Mellon University). Gaussian is a federally registered
 trademark of Gaussian, Inc.
  
 This software contains proprietary and confidential information,
 including trade secrets, belonging to Gaussian, Inc.
  
 This software is provided under written license and may be
 used, copied, transmitted, or stored only in accord with that
 written license.
  
 The following legend is applicable only to US Government
 contracts under FAR:
  
                    RESTRICTED RIGHTS LEGEND
  
 Use, reproduction and disclosure by the US Government is
 subject to restrictions as set forth in subparagraphs (a)
 and (c) of the Commercial Computer Software - Restricted
 Rights clause in FAR 52.227-19.
  
 Gaussian, Inc.
 340 Quinnipiac St., Bldg. 40, Wallingford CT 06492
  
  
 ---------------------------------------------------------------
 Warning -- This program may not be used in any manner that
 competes with the business of Gaussian, Inc. or will provide
 assistance to any competitor of Gaussian, Inc.  The licensee
 of this program is prohibited from giving any competitor of
 Gaussian, Inc. access to this program.  By using this program,
 the user acknowledges that Gaussian, Inc. is engaged in the
 business of creating and licensing software in the field of
 computational chemistry and represents and warrants to the
 licensee that it is not a competitor of Gaussian, Inc. and that
 it will not use this program in any manner prohibited above.
 ---------------------------------------------------------------
  

 Cite this work as:
 Gaussian 16, Revision C.01,
 M. J. Frisch, G. W. Trucks, H. B. Schlegel, G. E. Scuseria, 
 M. A. Robb, J. R. Cheeseman, G. Scalmani, V. Barone, 
 G. A. Petersson, H. Nakatsuji, X. Li, M. Caricato, A. V. Marenich, 
 J. Bloino, B. G. Janesko, R. Gomperts, B. Mennucci, H. P. Hratchian, 
 J. V. Ortiz, A. F. Izmaylov, J. L. Sonnenberg, D. Williams-Young, 
 F. Ding, F. Lipparini, F. Egidi, J. Goings, B. Peng, A. Petrone, 
 T. Henderson, D. Ranasinghe, V. G. Zakrzewski, J. Gao, N. Rega, 
 G. Zheng, W. Liang, M. Hada, M. Ehara, K. Toyota, R. Fukuda, 
 J. Hasegawa, M. Ishida, T. Nakajima, Y. Honda, O. Kitao, H. Nakai, 
 T. Vreven, K. Throssell, J. A. Montgomery, Jr., J. E. Peralta, 
 F. Ogliaro, M. J. Bearpark, J. J. Heyd, E. N. Brothers, K. N. Kudin, 
 V. N. Staroverov, T. A. Keith, R. Kobayashi, J. Normand, 
 K. Raghavachari, A. P. Rendell, J. C. Burant, S. S. Iyengar, 
 J. Tomasi, M. Cossi, J. M. Millam, M. Klene, C. Adamo, R. Cammi, 
 J. W. Ochterski, R. L. Martin, K. Morokuma, O. Farkas, 
 J. B. Foresman, and D. J. Fox, Gaussian, Inc., Wallingford CT, 2019.
 
 ******************************************
 Gaussian 16:  ES64L-G16RevC.01  3-Jul-2019
                28-Jan-2023 
 ******************************************
 %chk=geometry.chk
 %mem=30GB
 %nprocshared=12
 Will use up to   12 processors via shared memory.
 ------------------
 #P OPT BLYP/STO-5G
 ------------------
 1/18=20,19=15,26=3,38=1/1,3;
 2/9=110,12=2,17=6,18=5,40=1/2;
 3/6=5,11=2,25=1,30=1,71=1,74=402/1,2,3;
 4//1;
 5/5=2,38=5/2;
 6/7=2,8=2,9=2,10=2,28=1/1;
 7//1,2,3,16;
 1/18=20,19=15,26=3/3(2);
 2/9=110/2;
 99//99;
 2/9=110/2;
 3/6=5,11=2,25=1,30=1,71=1,74=402/1,2,3;
 4/5=5,16=3,69=1/1;
 5/5=2,38=5/2;
 7//1,2,3,16;
 1/18=20,19=15,26=3/3(-5);
 2/9=110/2;
 6/7=2,8=2,9=2,10=2,19=2,28=1/1;
 99/9=1/99;
 Leave Link    1 at Sat Jan 28 19:55:22 2023, MaxMem=  4026531840 cpu:               5.4 elap:               0.5
 (Enter /software/gaussian/g16-c01/avx/g16/l101.exe)
 -------
 TitleMe
 -------
 Symbolic Z-matrix:
 Charge =  0 Multiplicity = 1
 C                     10.89291   13.08107   9.84764 
 C                     9.13082   11.45613   10.04321 
 C                     10.07408   10.41836   9.9368 
 C                     11.43819   10.69524   9.78518 
 C                     11.83959   12.03974   9.7423 
 C                     13.15078   12.69655   9.62228 
 N                     13.00796   14.06671   9.65708 
 N                     14.30618   11.99671   9.50403 
 N                     17.85793   15.26753   9.04058 
 C                     15.52376   12.55266   9.36075 
 C                     16.77976   11.82036   9.27387 
 C                     17.07129   10.44263   9.331 
 C                     18.4066   10.04718   9.26056 
 C                     19.44322   10.99754   9.13652 
 C                     19.16715   12.36362   9.07802 
 C                     17.82154   12.77685   9.14678 
 C                     17.20363   14.09653   9.1451 
 N                     15.83943   13.89846   9.28124 
 C                     11.66226   14.33382   9.78545 
 C                     9.52622   12.79868   10.00017 
 C                     17.26243   16.4858   9.07672 
 C                     19.40532   18.01988   8.92469 
 C                     13.41242   18.2718   9.58814 
 C                     12.17214   19.00052   9.82038 
 C                     11.89619   20.3754   9.9615 
 C                     10.58049   20.76345   10.21521 
 C                     9.54603   19.80929   10.32825 
 C                     9.80566   18.44596   10.19251 
 C                     11.13133   18.04162   9.9368 
 C                     11.73399   16.72421   9.78915 
 N                     13.08865   16.92487   9.58417 
 N                     11.07417   15.55317   9.8641 
 C                     18.0332   17.73902   9.01977 
 C                     19.80761   19.36093   8.93932 
 C                     18.86492   20.3994   9.04751 
 C                     17.49554   20.12384   9.14419 
 C                     17.08762   18.78065   9.12896 
 C                     15.77508   18.12411   9.24965 
 N                     15.91757   16.75495   9.20284 
 N                     14.6272   18.8262   9.42133 
 H                     13.7715   16.17248   9.47226 
 H                     15.15497   14.65503   9.3447 
 H                     10.34322   21.82063   10.33312 
 H                     12.69291   21.11391   9.88081 
 H                     16.76923   20.93109   9.23731 
 H                     19.20968   21.43357   9.06094 
 H                     20.86729   19.60752   8.87067 
 H                     20.13972   17.21796   8.85072 
 H                     19.96974   13.09479   8.98869 
 H                     20.47643   10.65373   9.0918 
 H                     18.65893   8.98841   9.31184 
 H                     16.27346   9.70937   9.44122 
 H                     12.16802   9.88886   9.71752 
 H                     9.73605   9.38342   9.98751 
 H                     8.07751   11.20771   10.1734 
 H                     8.79421   13.60036   10.09603 
 H                     9.00954   17.70975   10.29445 
 H                     8.53074   20.14738   10.53408 
 C                     10.32841   11.82482   13.4126 
 C                     8.60479   10.16958   13.68195 
 C                     9.5658    9.14864   13.56759 
 C                     10.9199   9.44996   13.37779 
 C                     11.2927   10.80093   13.30013 
 C                     12.58253   11.48117   13.10124 
 N                     12.40671   12.84652   13.08179 
 N                     13.75267   10.80338   13.00171 
 N                     17.23644   14.14496   12.5159 
 C                     14.95748   11.38409   12.85397 
 C                     16.2354   10.68585   12.84842 
 C                     16.5653   9.31994   12.95407 
 C                     17.91308   8.96162   12.92456 
 C                     18.92578   9.93711   12.79763 
 C                     18.61253   11.29215   12.69559 
 C                     17.25433   11.66566   12.71942 
 C                     16.60208   12.96382   12.63288 
 N                     15.23909   12.73329   12.71351 
 C                     11.06516   13.09089   13.2739 
 C                     8.97271   11.51854   13.60784 
 C                     16.61929   15.35192   12.51004 
 C                     18.73912   16.92062   12.45255 
 C                     12.73987   17.05486   13.03767 
 C                     11.50768   17.75978   13.35952 
 C                     11.22601   19.12904   13.53463 
 C                     9.91798   19.49848   13.84648 
 C                     8.90044   18.53018   13.98856 
 C                     9.16901   17.17134   13.82408 
 C                     10.48601   16.78527   13.50452 
 C                     11.09371   15.48064   13.28272 
 N                     12.43     15.70571   12.99604 
 N                     10.45777   14.29878   13.3772 
 C                     17.37017   16.61637   12.51154 
 C                     19.11689   18.26814   12.4918 
 C                     18.1544   19.28853   12.594 
 C                     16.7881   18.98923   12.65743 
 C                     16.40435   17.63988   12.61154 
 C                     15.10074   16.96046   12.66468 
 N                     15.26447   15.59534   12.57715 
 N                     13.94059   17.63539   12.85667 
 H                     13.10031   14.96781   12.77113 
 H                     14.52792   13.46635   12.67136 
 H                     9.67195   20.5517   13.97965 
 H                     12.00893   19.87715   13.41847 
 H                     16.04458   19.78267   12.72842 
 H                     18.4806   20.32836   12.61446 
 H                     20.17229   18.53454   12.43365 
 H                     19.48672   16.13233   12.3678 
 H                     19.39396   12.04361   12.59188 
 H                     19.96851   9.62111   12.77644 
 H                     18.19345   7.91132   13.00099 
 H                     15.78601   8.56538   13.05412 
 H                     11.66104   8.65603   13.28738 
 H                     9.2478    8.10761   13.62777 
 H                     7.55815   9.90281   13.8296 
 H                     8.22496   12.30698   13.69315 
 H                     8.38273   16.42589   13.93714 
 H                     7.88871   18.8542   14.23232 
 C                     13.35361   14.04768   22.32057 
 C                     15.61749   15.07311   22.40446 
 C                     15.0388   16.35097   22.00522 
 C                     13.64909   16.4554   21.77344 
 C                     12.79306   15.28545   21.93367 
 C                     12.90922   12.81438   21.68124 
 C                     14.06925   11.94436   21.5252 
 C                     15.23062   12.63985   22.06801 
 C                     16.48823   12.51384   21.43664 
 C                     16.91573   14.94311   21.75263 
 C                     15.97941   17.01077   21.10678 
 C                     15.501    17.75448   20.0049 
 C                     14.06607   17.86259   19.76583 
 C                     13.15486   17.22333   20.63617 
 C                     11.9929   16.52815   20.09384 
 C                     11.7697   15.33018   20.89536 
 C                     11.33921   14.13546   20.27592 
 C                     11.91814   12.8575   20.67519 
 C                     14.20176   11.1446   20.3681 
 C                     13.17817   11.18803   19.33006 
 C                     12.05424   12.03119   19.48119 
 C                     11.55864   12.7987   18.34379 
 C                     11.11705   14.09962   18.8349 
 C                     11.33296   15.26082   18.0587 
 C                     11.77788   16.49446   18.69782 
 C                     12.71866   17.15488   17.79957 
 C                     13.84503   17.82817   18.32454 
 C                     17.13936   16.14066   20.95071 
 C                     16.43825   16.02781   16.36157 
 C                     17.43037   15.98466   17.36577 
 C                     18.00807   14.70568   17.76478 
 C                     17.57845   13.5096   17.14627 
 C                     16.55443   13.55424   16.10986 
 C                     14.55879   14.89966   15.49718 
 C                     14.11652   16.19965   15.98289 
 C                     15.27781   16.89825   16.51757 
 C                     15.14421   17.69924   17.67309 
 C                     16.16771   17.65332   18.71169 
 C                     17.29187   16.81022   18.56055 
 C                     18.22726   14.74143   19.20617 
 C                     18.01058   13.58127   19.98309 
 C                     17.56678   12.34744   19.34422 
 C                     17.35407   12.31178   17.94798 
 C                     16.19245   11.61562   17.40541 
 C                     15.69786   12.38414   16.26984 
 C                     14.3078   12.49088   16.0443 
 C                     13.73027   13.76887   15.64996 
 C                     12.85624   16.32837   16.60657 
 C                     11.9996   15.15821   16.76619 
 C                     12.43161   13.89866   16.29669 
 C                     12.20443   12.69907   17.09162 
 C                     13.36503   11.82841   16.93576 
 C                     13.84436   11.08411   18.03637 
 C                     15.27967   10.97715   18.27515 
 C                     15.50018   11.01437   19.71636 
 C                     16.62535   11.68808   20.24227 
 C                     17.78475   16.04164   19.69777 
 C                     17.34424   13.68386   21.27646 
 C                     15.99183   14.79242   15.73233 
 C                     14.7883   13.93978   22.55969 
 O                     15.40165   14.52619   23.80177 
 
 Add virtual bond connecting atoms C150       and N97        Dist= 5.83D+00.
 Add virtual bond connecting atoms C150       and H99        Dist= 5.84D+00.
 Add virtual bond connecting atoms C150       and H100       Dist= 5.99D+00.
 Add virtual bond connecting atoms C163       and N65        Dist= 5.73D+00.
 Add virtual bond connecting atoms C163       and H99        Dist= 6.01D+00.
 Add virtual bond connecting atoms N67        and C17        Dist= 6.37D+00.
 Add virtual bond connecting atoms N76        and C10        Dist= 6.37D+00.
 Add virtual bond connecting atoms N97        and H42        Dist= 6.37D+00.
 Add virtual bond connecting atoms N98        and C23        Dist= 6.37D+00.
 Add virtual bond connecting atoms H99        and N7         Dist= 6.13D+00.
 ITRead=  0  0  0  0  0  0  0  0  0  0  0  0  0  0  0  0  0  0  0  0
 ITRead=  0  0  0  0  0  0  0  0  0  0  0  0  0  0  0  0  0  0  0  0
 ITRead=  0  0  0  0  0  0  0  0  0  0  0  0  0  0  0  0  0  0  0  0
 ITRead=  0  0  0  0  0  0  0  0  0  0  0  0  0  0  0  0  0  0  0  0
 ITRead=  0  0  0  0  0  0  0  0  0  0  0  0  0  0  0  0  0  0  0  0
 ITRead=  0  0  0  0  0  0  0  0  0  0  0  0  0  0  0  0  0  0  0  0
 ITRead=  0  0  0  0  0  0  0  0  0  0  0  0  0  0  0  0  0  0  0  0
 ITRead=  0  0  0  0  0  0  0  0  0  0  0  0  0  0  0  0  0  0  0  0
 ITRead=  0  0  0  0  0  0  0  0  0  0  0  0  0  0  0  0  0
 MicOpt= -1 -1 -1 -1 -1 -1 -1 -1 -1 -1 -1 -1 -1 -1 -1 -1 -1 -1 -1 -1
 MicOpt= -1 -1 -1 -1 -1 -1 -1 -1 -1 -1 -1 -1 -1 -1 -1 -1 -1 -1 -1 -1
 MicOpt= -1 -1 -1 -1 -1 -1 -1 -1 -1 -1 -1 -1 -1 -1 -1 -1 -1 -1 -1 -1
 MicOpt= -1 -1 -1 -1 -1 -1 -1 -1 -1 -1 -1 -1 -1 -1 -1 -1 -1 -1 -1 -1
 MicOpt= -1 -1 -1 -1 -1 -1 -1 -1 -1 -1 -1 -1 -1 -1 -1 -1 -1 -1 -1 -1
 MicOpt= -1 -1 -1 -1 -1 -1 -1 -1 -1 -1 -1 -1 -1 -1 -1 -1 -1 -1 -1 -1
 MicOpt= -1 -1 -1 -1 -1 -1 -1 -1 -1 -1 -1 -1 -1 -1 -1 -1 -1 -1 -1 -1
 MicOpt= -1 -1 -1 -1 -1 -1 -1 -1 -1 -1 -1 -1 -1 -1 -1 -1 -1 -1 -1 -1
 MicOpt= -1 -1 -1 -1 -1 -1 -1 -1 -1 -1 -1 -1 -1 -1 -1 -1 -1
 NAtoms=    177 NQM=      177 NQMF=       0 NMMI=      0 NMMIF=      0
                NMic=       0 NMicF=      0.
                    Isotopes and Nuclear Properties:
 (Nuclear quadrupole moments (NQMom) in fm**2, nuclear magnetic moments (NMagM)
  in nuclear magnetons)

  Atom         1           2           3           4           5           6           7           8           9          10
 IAtWgt=          12          12          12          12          12          12          14          14          14          12
 AtmWgt=  12.0000000  12.0000000  12.0000000  12.0000000  12.0000000  12.0000000  14.0030740  14.0030740  14.0030740  12.0000000
 NucSpn=           0           0           0           0           0           0           2           2           2           0
 AtZEff=  -0.0000000  -0.0000000  -0.0000000  -0.0000000  -0.0000000  -0.0000000  -0.0000000  -0.0000000  -0.0000000  -0.0000000
 NQMom=    0.0000000   0.0000000   0.0000000   0.0000000   0.0000000   0.0000000   2.0440000   2.0440000   2.0440000   0.0000000
 NMagM=    0.0000000   0.0000000   0.0000000   0.0000000   0.0000000   0.0000000   0.4037610   0.4037610   0.4037610   0.0000000
 AtZNuc=   6.0000000   6.0000000   6.0000000   6.0000000   6.0000000   6.0000000   7.0000000   7.0000000   7.0000000   6.0000000

  Atom        11          12          13          14          15          16          17          18          19          20
 IAtWgt=          12          12          12          12          12          12          12          14          12          12
 AtmWgt=  12.0000000  12.0000000  12.0000000  12.0000000  12.0000000  12.0000000  12.0000000  14.0030740  12.0000000  12.0000000
 NucSpn=           0           0           0           0           0           0           0           2           0           0
 AtZEff=  -0.0000000  -0.0000000  -0.0000000  -0.0000000  -0.0000000  -0.0000000  -0.0000000  -0.0000000  -0.0000000  -0.0000000
 NQMom=    0.0000000   0.0000000   0.0000000   0.0000000   0.0000000   0.0000000   0.0000000   2.0440000   0.0000000   0.0000000
 NMagM=    0.0000000   0.0000000   0.0000000   0.0000000   0.0000000   0.0000000   0.0000000   0.4037610   0.0000000   0.0000000
 AtZNuc=   6.0000000   6.0000000   6.0000000   6.0000000   6.0000000   6.0000000   6.0000000   7.0000000   6.0000000   6.0000000

  Atom        21          22          23          24          25          26          27          28          29          30
 IAtWgt=          12          12          12          12          12          12          12          12          12          12
 AtmWgt=  12.0000000  12.0000000  12.0000000  12.0000000  12.0000000  12.0000000  12.0000000  12.0000000  12.0000000  12.0000000
 NucSpn=           0           0           0           0           0           0           0           0           0           0
 AtZEff=  -0.0000000  -0.0000000  -0.0000000  -0.0000000  -0.0000000  -0.0000000  -0.0000000  -0.0000000  -0.0000000  -0.0000000
 NQMom=    0.0000000   0.0000000   0.0000000   0.0000000   0.0000000   0.0000000   0.0000000   0.0000000   0.0000000   0.0000000
 NMagM=    0.0000000   0.0000000   0.0000000   0.0000000   0.0000000   0.0000000   0.0000000   0.0000000   0.0000000   0.0000000
 AtZNuc=   6.0000000   6.0000000   6.0000000   6.0000000   6.0000000   6.0000000   6.0000000   6.0000000   6.0000000   6.0000000

  Atom        31          32          33          34          35          36          37          38          39          40
 IAtWgt=          14          14          12          12          12          12          12          12          14          14
 AtmWgt=  14.0030740  14.0030740  12.0000000  12.0000000  12.0000000  12.0000000  12.0000000  12.0000000  14.0030740  14.0030740
 NucSpn=           2           2           0           0           0           0           0           0           2           2
 AtZEff=  -0.0000000  -0.0000000  -0.0000000  -0.0000000  -0.0000000  -0.0000000  -0.0000000  -0.0000000  -0.0000000  -0.0000000
 NQMom=    2.0440000   2.0440000   0.0000000   0.0000000   0.0000000   0.0000000   0.0000000   0.0000000   2.0440000   2.0440000
 NMagM=    0.4037610   0.4037610   0.0000000   0.0000000   0.0000000   0.0000000   0.0000000   0.0000000   0.4037610   0.4037610
 AtZNuc=   7.0000000   7.0000000   6.0000000   6.0000000   6.0000000   6.0000000   6.0000000   6.0000000   7.0000000   7.0000000

  Atom        41          42          43          44          45          46          47          48          49          50
 IAtWgt=           1           1           1           1           1           1           1           1           1           1
 AtmWgt=   1.0078250   1.0078250   1.0078250   1.0078250   1.0078250   1.0078250   1.0078250   1.0078250   1.0078250   1.0078250
 NucSpn=           1           1           1           1           1           1           1           1           1           1
 AtZEff=  -0.0000000  -0.0000000  -0.0000000  -0.0000000  -0.0000000  -0.0000000  -0.0000000  -0.0000000  -0.0000000  -0.0000000
 NQMom=    0.0000000   0.0000000   0.0000000   0.0000000   0.0000000   0.0000000   0.0000000   0.0000000   0.0000000   0.0000000
 NMagM=    2.7928460   2.7928460   2.7928460   2.7928460   2.7928460   2.7928460   2.7928460   2.7928460   2.7928460   2.7928460
 AtZNuc=   1.0000000   1.0000000   1.0000000   1.0000000   1.0000000   1.0000000   1.0000000   1.0000000   1.0000000   1.0000000

  Atom        51          52          53          54          55          56          57          58          59          60
 IAtWgt=           1           1           1           1           1           1           1           1          12          12
 AtmWgt=   1.0078250   1.0078250   1.0078250   1.0078250   1.0078250   1.0078250   1.0078250   1.0078250  12.0000000  12.0000000
 NucSpn=           1           1           1           1           1           1           1           1           0           0
 AtZEff=  -0.0000000  -0.0000000  -0.0000000  -0.0000000  -0.0000000  -0.0000000  -0.0000000  -0.0000000  -0.0000000  -0.0000000
 NQMom=    0.0000000   0.0000000   0.0000000   0.0000000   0.0000000   0.0000000   0.0000000   0.0000000   0.0000000   0.0000000
 NMagM=    2.7928460   2.7928460   2.7928460   2.7928460   2.7928460   2.7928460   2.7928460   2.7928460   0.0000000   0.0000000
 AtZNuc=   1.0000000   1.0000000   1.0000000   1.0000000   1.0000000   1.0000000   1.0000000   1.0000000   6.0000000   6.0000000

  Atom        61          62          63          64          65          66          67          68          69          70
 IAtWgt=          12          12          12          12          14          14          14          12          12          12
 AtmWgt=  12.0000000  12.0000000  12.0000000  12.0000000  14.0030740  14.0030740  14.0030740  12.0000000  12.0000000  12.0000000
 NucSpn=           0           0           0           0           2           2           2           0           0           0
 AtZEff=  -0.0000000  -0.0000000  -0.0000000  -0.0000000  -0.0000000  -0.0000000  -0.0000000  -0.0000000  -0.0000000  -0.0000000
 NQMom=    0.0000000   0.0000000   0.0000000   0.0000000   2.0440000   2.0440000   2.0440000   0.0000000   0.0000000   0.0000000
 NMagM=    0.0000000   0.0000000   0.0000000   0.0000000   0.4037610   0.4037610   0.4037610   0.0000000   0.0000000   0.0000000
 AtZNuc=   6.0000000   6.0000000   6.0000000   6.0000000   7.0000000   7.0000000   7.0000000   6.0000000   6.0000000   6.0000000

  Atom        71          72          73          74          75          76          77          78          79          80
 IAtWgt=          12          12          12          12          12          14          12          12          12          12
 AtmWgt=  12.0000000  12.0000000  12.0000000  12.0000000  12.0000000  14.0030740  12.0000000  12.0000000  12.0000000  12.0000000
 NucSpn=           0           0           0           0           0           2           0           0           0           0
 AtZEff=  -0.0000000  -0.0000000  -0.0000000  -0.0000000  -0.0000000  -0.0000000  -0.0000000  -0.0000000  -0.0000000  -0.0000000
 NQMom=    0.0000000   0.0000000   0.0000000   0.0000000   0.0000000   2.0440000   0.0000000   0.0000000   0.0000000   0.0000000
 NMagM=    0.0000000   0.0000000   0.0000000   0.0000000   0.0000000   0.4037610   0.0000000   0.0000000   0.0000000   0.0000000
 AtZNuc=   6.0000000   6.0000000   6.0000000   6.0000000   6.0000000   7.0000000   6.0000000   6.0000000   6.0000000   6.0000000

  Atom        81          82          83          84          85          86          87          88          89          90
 IAtWgt=          12          12          12          12          12          12          12          12          14          14
 AtmWgt=  12.0000000  12.0000000  12.0000000  12.0000000  12.0000000  12.0000000  12.0000000  12.0000000  14.0030740  14.0030740
 NucSpn=           0           0           0           0           0           0           0           0           2           2
 AtZEff=  -0.0000000  -0.0000000  -0.0000000  -0.0000000  -0.0000000  -0.0000000  -0.0000000  -0.0000000  -0.0000000  -0.0000000
 NQMom=    0.0000000   0.0000000   0.0000000   0.0000000   0.0000000   0.0000000   0.0000000   0.0000000   2.0440000   2.0440000
 NMagM=    0.0000000   0.0000000   0.0000000   0.0000000   0.0000000   0.0000000   0.0000000   0.0000000   0.4037610   0.4037610
 AtZNuc=   6.0000000   6.0000000   6.0000000   6.0000000   6.0000000   6.0000000   6.0000000   6.0000000   7.0000000   7.0000000

  Atom        91          92          93          94          95          96          97          98          99         100
 IAtWgt=          12          12          12          12          12          12          14          14           1           1
 AtmWgt=  12.0000000  12.0000000  12.0000000  12.0000000  12.0000000  12.0000000  14.0030740  14.0030740   1.0078250   1.0078250
 NucSpn=           0           0           0           0           0           0           2           2           1           1
 AtZEff=  -0.0000000  -0.0000000  -0.0000000  -0.0000000  -0.0000000  -0.0000000  -0.0000000  -0.0000000  -0.0000000  -0.0000000
 NQMom=    0.0000000   0.0000000   0.0000000   0.0000000   0.0000000   0.0000000   2.0440000   2.0440000   0.0000000   0.0000000
 NMagM=    0.0000000   0.0000000   0.0000000   0.0000000   0.0000000   0.0000000   0.4037610   0.4037610   2.7928460   2.7928460
 AtZNuc=   6.0000000   6.0000000   6.0000000   6.0000000   6.0000000   6.0000000   7.0000000   7.0000000   1.0000000   1.0000000

  Atom       101         102         103         104         105         106         107         108         109         110
 IAtWgt=           1           1           1           1           1           1           1           1           1           1
 AtmWgt=   1.0078250   1.0078250   1.0078250   1.0078250   1.0078250   1.0078250   1.0078250   1.0078250   1.0078250   1.0078250
 NucSpn=           1           1           1           1           1           1           1           1           1           1
 AtZEff=  -0.0000000  -0.0000000  -0.0000000  -0.0000000  -0.0000000  -0.0000000  -0.0000000  -0.0000000  -0.0000000  -0.0000000
 NQMom=    0.0000000   0.0000000   0.0000000   0.0000000   0.0000000   0.0000000   0.0000000   0.0000000   0.0000000   0.0000000
 NMagM=    2.7928460   2.7928460   2.7928460   2.7928460   2.7928460   2.7928460   2.7928460   2.7928460   2.7928460   2.7928460
 AtZNuc=   1.0000000   1.0000000   1.0000000   1.0000000   1.0000000   1.0000000   1.0000000   1.0000000   1.0000000   1.0000000

  Atom       111         112         113         114         115         116         117         118         119         120
 IAtWgt=           1           1           1           1           1           1          12          12          12          12
 AtmWgt=   1.0078250   1.0078250   1.0078250   1.0078250   1.0078250   1.0078250  12.0000000  12.0000000  12.0000000  12.0000000
 NucSpn=           1           1           1           1           1           1           0           0           0           0
 AtZEff=  -0.0000000  -0.0000000  -0.0000000  -0.0000000  -0.0000000  -0.0000000  -0.0000000  -0.0000000  -0.0000000  -0.0000000
 NQMom=    0.0000000   0.0000000   0.0000000   0.0000000   0.0000000   0.0000000   0.0000000   0.0000000   0.0000000   0.0000000
 NMagM=    2.7928460   2.7928460   2.7928460   2.7928460   2.7928460   2.7928460   0.0000000   0.0000000   0.0000000   0.0000000
 AtZNuc=   1.0000000   1.0000000   1.0000000   1.0000000   1.0000000   1.0000000   6.0000000   6.0000000   6.0000000   6.0000000

  Atom       121         122         123         124         125         126         127         128         129         130
 IAtWgt=          12          12          12          12          12          12          12          12          12          12
 AtmWgt=  12.0000000  12.0000000  12.0000000  12.0000000  12.0000000  12.0000000  12.0000000  12.0000000  12.0000000  12.0000000
 NucSpn=           0           0           0           0           0           0           0           0           0           0
 AtZEff=  -0.0000000  -0.0000000  -0.0000000  -0.0000000  -0.0000000  -0.0000000  -0.0000000  -0.0000000  -0.0000000  -0.0000000
 NQMom=    0.0000000   0.0000000   0.0000000   0.0000000   0.0000000   0.0000000   0.0000000   0.0000000   0.0000000   0.0000000
 NMagM=    0.0000000   0.0000000   0.0000000   0.0000000   0.0000000   0.0000000   0.0000000   0.0000000   0.0000000   0.0000000
 AtZNuc=   6.0000000   6.0000000   6.0000000   6.0000000   6.0000000   6.0000000   6.0000000   6.0000000   6.0000000   6.0000000

  Atom       131         132         133         134         135         136         137         138         139         140
 IAtWgt=          12          12          12          12          12          12          12          12          12          12
 AtmWgt=  12.0000000  12.0000000  12.0000000  12.0000000  12.0000000  12.0000000  12.0000000  12.0000000  12.0000000  12.0000000
 NucSpn=           0           0           0           0           0           0           0           0           0           0
 AtZEff=  -0.0000000  -0.0000000  -0.0000000  -0.0000000  -0.0000000  -0.0000000  -0.0000000  -0.0000000  -0.0000000  -0.0000000
 NQMom=    0.0000000   0.0000000   0.0000000   0.0000000   0.0000000   0.0000000   0.0000000   0.0000000   0.0000000   0.0000000
 NMagM=    0.0000000   0.0000000   0.0000000   0.0000000   0.0000000   0.0000000   0.0000000   0.0000000   0.0000000   0.0000000
 AtZNuc=   6.0000000   6.0000000   6.0000000   6.0000000   6.0000000   6.0000000   6.0000000   6.0000000   6.0000000   6.0000000

  Atom       141         142         143         144         145         146         147         148         149         150
 IAtWgt=          12          12          12          12          12          12          12          12          12          12
 AtmWgt=  12.0000000  12.0000000  12.0000000  12.0000000  12.0000000  12.0000000  12.0000000  12.0000000  12.0000000  12.0000000
 NucSpn=           0           0           0           0           0           0           0           0           0           0
 AtZEff=  -0.0000000  -0.0000000  -0.0000000  -0.0000000  -0.0000000  -0.0000000  -0.0000000  -0.0000000  -0.0000000  -0.0000000
 NQMom=    0.0000000   0.0000000   0.0000000   0.0000000   0.0000000   0.0000000   0.0000000   0.0000000   0.0000000   0.0000000
 NMagM=    0.0000000   0.0000000   0.0000000   0.0000000   0.0000000   0.0000000   0.0000000   0.0000000   0.0000000   0.0000000
 AtZNuc=   6.0000000   6.0000000   6.0000000   6.0000000   6.0000000   6.0000000   6.0000000   6.0000000   6.0000000   6.0000000

  Atom       151         152         153         154         155         156         157         158         159         160
 IAtWgt=          12          12          12          12          12          12          12          12          12          12
 AtmWgt=  12.0000000  12.0000000  12.0000000  12.0000000  12.0000000  12.0000000  12.0000000  12.0000000  12.0000000  12.0000000
 NucSpn=           0           0           0           0           0           0           0           0           0           0
 AtZEff=  -0.0000000  -0.0000000  -0.0000000  -0.0000000  -0.0000000  -0.0000000  -0.0000000  -0.0000000  -0.0000000  -0.0000000
 NQMom=    0.0000000   0.0000000   0.0000000   0.0000000   0.0000000   0.0000000   0.0000000   0.0000000   0.0000000   0.0000000
 NMagM=    0.0000000   0.0000000   0.0000000   0.0000000   0.0000000   0.0000000   0.0000000   0.0000000   0.0000000   0.0000000
 AtZNuc=   6.0000000   6.0000000   6.0000000   6.0000000   6.0000000   6.0000000   6.0000000   6.0000000   6.0000000   6.0000000

  Atom       161         162         163         164         165         166         167         168         169         170
 IAtWgt=          12          12          12          12          12          12          12          12          12          12
 AtmWgt=  12.0000000  12.0000000  12.0000000  12.0000000  12.0000000  12.0000000  12.0000000  12.0000000  12.0000000  12.0000000
 NucSpn=           0           0           0           0           0           0           0           0           0           0
 AtZEff=  -0.0000000  -0.0000000  -0.0000000  -0.0000000  -0.0000000  -0.0000000  -0.0000000  -0.0000000  -0.0000000  -0.0000000
 NQMom=    0.0000000   0.0000000   0.0000000   0.0000000   0.0000000   0.0000000   0.0000000   0.0000000   0.0000000   0.0000000
 NMagM=    0.0000000   0.0000000   0.0000000   0.0000000   0.0000000   0.0000000   0.0000000   0.0000000   0.0000000   0.0000000
 AtZNuc=   6.0000000   6.0000000   6.0000000   6.0000000   6.0000000   6.0000000   6.0000000   6.0000000   6.0000000   6.0000000

  Atom       171         172         173         174         175         176         177
 IAtWgt=          12          12          12          12          12          12          16
 AtmWgt=  12.0000000  12.0000000  12.0000000  12.0000000  12.0000000  12.0000000  15.9949146
 NucSpn=           0           0           0           0           0           0           0
 AtZEff=  -0.0000000  -0.0000000  -0.0000000  -0.0000000  -0.0000000  -0.0000000  -0.0000000
 NQMom=    0.0000000   0.0000000   0.0000000   0.0000000   0.0000000   0.0000000   0.0000000
 NMagM=    0.0000000   0.0000000   0.0000000   0.0000000   0.0000000   0.0000000   0.0000000
 AtZNuc=   6.0000000   6.0000000   6.0000000   6.0000000   6.0000000   6.0000000   8.0000000
 Leave Link  101 at Sat Jan 28 19:55:24 2023, MaxMem=  4026531840 cpu:              12.8 elap:               1.6
 (Enter /software/gaussian/g16-c01/avx/g16/l103.exe)

 GradGradGradGradGradGradGradGradGradGradGradGradGradGradGradGradGradGrad
 Berny optimization.
 Initialization pass.
                           ----------------------------
                           !    Initial Parameters    !
                           ! (Angstroms and Degrees)  !
 --------------------------                            --------------------------
 ! Name  Definition              Value          Derivative Info.                !
 --------------------------------------------------------------------------------
 ! R1    R(1,5)                  1.4113         estimate D2E/DX2                !
 ! R2    R(1,19)                 1.4714         estimate D2E/DX2                !
 ! R3    R(1,20)                 1.4039         estimate D2E/DX2                !
 ! R4    R(2,3)                  1.4064         estimate D2E/DX2                !
 ! R5    R(2,20)                 1.4002         estimate D2E/DX2                !
 ! R6    R(2,55)                 1.09           estimate D2E/DX2                !
 ! R7    R(3,4)                  1.4002         estimate D2E/DX2                !
 ! R8    R(3,54)                 1.0899         estimate D2E/DX2                !
 ! R9    R(4,5)                  1.4038         estimate D2E/DX2                !
 ! R10   R(4,53)                 1.0897         estimate D2E/DX2                !
 ! R11   R(5,6)                  1.4714         estimate D2E/DX2                !
 ! R12   R(6,7)                  1.378          estimate D2E/DX2                !
 ! R13   R(6,8)                  1.356          estimate D2E/DX2                !
 ! R14   R(7,19)                 1.3779         estimate D2E/DX2                !
 ! R15   R(7,99)                 3.2431         estimate D2E/DX2                !
 ! R16   R(8,10)                 1.3462         estimate D2E/DX2                !
 ! R17   R(9,17)                 1.3455         estimate D2E/DX2                !
 ! R18   R(9,21)                 1.3565         estimate D2E/DX2                !
 ! R19   R(10,11)                1.4565         estimate D2E/DX2                !
 ! R20   R(10,18)                1.3846         estimate D2E/DX2                !
 ! R21   R(10,76)                3.3697         estimate D2E/DX2                !
 ! R22   R(11,12)                1.4094         estimate D2E/DX2                !
 ! R23   R(11,16)                1.42           estimate D2E/DX2                !
 ! R24   R(12,13)                1.3944         estimate D2E/DX2                !
 ! R25   R(12,52)                1.0892         estimate D2E/DX2                !
 ! R26   R(13,14)                1.4118         estimate D2E/DX2                !
 ! R27   R(13,51)                1.0896         estimate D2E/DX2                !
 ! R28   R(14,15)                1.3949         estimate D2E/DX2                !
 ! R29   R(14,50)                1.0898         estimate D2E/DX2                !
 ! R30   R(15,16)                1.4093         estimate D2E/DX2                !
 ! R31   R(15,49)                1.0894         estimate D2E/DX2                !
 ! R32   R(16,17)                1.4572         estimate D2E/DX2                !
 ! R33   R(17,18)                1.3852         estimate D2E/DX2                !
 ! R34   R(17,67)                3.3713         estimate D2E/DX2                !
 ! R35   R(18,42)                1.0222         estimate D2E/DX2                !
 ! R36   R(19,32)                1.356          estimate D2E/DX2                !
 ! R37   R(20,56)                1.0898         estimate D2E/DX2                !
 ! R38   R(21,33)                1.4724         estimate D2E/DX2                !
 ! R39   R(21,39)                1.3773         estimate D2E/DX2                !
 ! R40   R(22,33)                1.4038         estimate D2E/DX2                !
 ! R41   R(22,34)                1.4002         estimate D2E/DX2                !
 ! R42   R(22,48)                1.0899         estimate D2E/DX2                !
 ! R43   R(23,24)                1.4571         estimate D2E/DX2                !
 ! R44   R(23,31)                1.3853         estimate D2E/DX2                !
 ! R45   R(23,40)                1.3457         estimate D2E/DX2                !
 ! R46   R(23,98)                3.3715         estimate D2E/DX2                !
 ! R47   R(24,25)                1.4094         estimate D2E/DX2                !
 ! R48   R(24,29)                1.42           estimate D2E/DX2                !
 ! R49   R(25,26)                1.395          estimate D2E/DX2                !
 ! R50   R(25,44)                1.0893         estimate D2E/DX2                !
 ! R51   R(26,27)                1.4118         estimate D2E/DX2                !
 ! R52   R(26,43)                1.0899         estimate D2E/DX2                !
 ! R53   R(27,28)                1.3945         estimate D2E/DX2                !
 ! R54   R(27,58)                1.0897         estimate D2E/DX2                !
 ! R55   R(28,29)                1.4094         estimate D2E/DX2                !
 ! R56   R(28,57)                1.0891         estimate D2E/DX2                !
 ! R57   R(29,30)                1.4562         estimate D2E/DX2                !
 ! R58   R(30,31)                1.3847         estimate D2E/DX2                !
 ! R59   R(30,32)                1.3462         estimate D2E/DX2                !
 ! R60   R(31,41)                1.0222         estimate D2E/DX2                !
 ! R61   R(33,37)                1.411          estimate D2E/DX2                !
 ! R62   R(34,35)                1.4067         estimate D2E/DX2                !
 ! R63   R(34,47)                1.0902         estimate D2E/DX2                !
 ! R64   R(35,36)                1.4002         estimate D2E/DX2                !
 ! R65   R(35,46)                1.0902         estimate D2E/DX2                !
 ! R66   R(36,37)                1.4038         estimate D2E/DX2                !
 ! R67   R(36,45)                1.0899         estimate D2E/DX2                !
 ! R68   R(37,38)                1.4725         estimate D2E/DX2                !
 ! R69   R(38,39)                1.3774         estimate D2E/DX2                !
 ! R70   R(38,40)                1.3565         estimate D2E/DX2                !
 ! R71   R(42,97)                3.3682         estimate D2E/DX2                !
 ! R72   R(59,63)                1.411          estimate D2E/DX2                !
 ! R73   R(59,77)                1.4714         estimate D2E/DX2                !
 ! R74   R(59,78)                1.4035         estimate D2E/DX2                !
 ! R75   R(60,61)                1.4067         estimate D2E/DX2                !
 ! R76   R(60,78)                1.4002         estimate D2E/DX2                !
 ! R77   R(60,113)               1.0901         estimate D2E/DX2                !
 ! R78   R(61,62)                1.4001         estimate D2E/DX2                !
 ! R79   R(61,112)               1.0902         estimate D2E/DX2                !
 ! R80   R(62,63)                1.4036         estimate D2E/DX2                !
 ! R81   R(62,111)               1.0899         estimate D2E/DX2                !
 ! R82   R(63,64)                1.4717         estimate D2E/DX2                !
 ! R83   R(64,65)                1.3768         estimate D2E/DX2                !
 ! R84   R(64,66)                1.3559         estimate D2E/DX2                !
 ! R85   R(65,77)                1.3771         estimate D2E/DX2                !
 ! R86   R(65,163)               3.0328         estimate D2E/DX2                !
 ! R87   R(66,68)                1.3456         estimate D2E/DX2                !
 ! R88   R(67,75)                1.3458         estimate D2E/DX2                !
 ! R89   R(67,79)                1.3556         estimate D2E/DX2                !
 ! R90   R(68,69)                1.4562         estimate D2E/DX2                !
 ! R91   R(68,76)                1.3854         estimate D2E/DX2                !
 ! R92   R(69,70)                1.4092         estimate D2E/DX2                !
 ! R93   R(69,74)                1.4195         estimate D2E/DX2                !
 ! R94   R(70,71)                1.3949         estimate D2E/DX2                !
 ! R95   R(70,110)               1.0893         estimate D2E/DX2                !
 ! R96   R(71,72)                1.4118         estimate D2E/DX2                !
 ! R97   R(71,109)               1.0898         estimate D2E/DX2                !
 ! R98   R(72,73)                1.3945         estimate D2E/DX2                !
 ! R99   R(72,108)               1.0898         estimate D2E/DX2                !
 ! R100  R(73,74)                1.4088         estimate D2E/DX2                !
 ! R101  R(73,107)               1.0891         estimate D2E/DX2                !
 ! R102  R(74,75)                1.4554         estimate D2E/DX2                !
 ! R103  R(75,76)                1.3847         estimate D2E/DX2                !
 ! R104  R(76,100)               1.0222         estimate D2E/DX2                !
 ! R105  R(77,90)                1.3559         estimate D2E/DX2                !
 ! R106  R(78,114)               1.09           estimate D2E/DX2                !
 ! R107  R(79,91)                1.4706         estimate D2E/DX2                !
 ! R108  R(79,97)                1.3781         estimate D2E/DX2                !
 ! R109  R(80,91)                1.4036         estimate D2E/DX2                !
 ! R110  R(80,92)                1.4            estimate D2E/DX2                !
 ! R111  R(80,106)               1.0897         estimate D2E/DX2                !
 ! R112  R(81,82)                1.4556         estimate D2E/DX2                !
 ! R113  R(81,89)                1.3849         estimate D2E/DX2                !
 ! R114  R(81,98)                1.3459         estimate D2E/DX2                !
 ! R115  R(82,83)                1.4089         estimate D2E/DX2                !
 ! R116  R(82,87)                1.4193         estimate D2E/DX2                !
 ! R117  R(83,84)                1.3945         estimate D2E/DX2                !
 ! R118  R(83,102)               1.0891         estimate D2E/DX2                !
 ! R119  R(84,85)                1.4118         estimate D2E/DX2                !
 ! R120  R(84,101)               1.0897         estimate D2E/DX2                !
 ! R121  R(85,86)                1.3949         estimate D2E/DX2                !
 ! R122  R(85,116)               1.0899         estimate D2E/DX2                !
 ! R123  R(86,87)                1.4091         estimate D2E/DX2                !
 ! R124  R(86,115)               1.0894         estimate D2E/DX2                !
 ! R125  R(87,88)                1.4562         estimate D2E/DX2                !
 ! R126  R(88,89)                1.3851         estimate D2E/DX2                !
 ! R127  R(88,90)                1.3454         estimate D2E/DX2                !
 ! R128  R(89,99)                1.022          estimate D2E/DX2                !
 ! R129  R(91,95)                1.4108         estimate D2E/DX2                !
 ! R130  R(92,93)                1.4064         estimate D2E/DX2                !
 ! R131  R(92,105)               1.0901         estimate D2E/DX2                !
 ! R132  R(93,94)                1.4001         estimate D2E/DX2                !
 ! R133  R(93,104)               1.09           estimate D2E/DX2                !
 ! R134  R(94,95)                1.4036         estimate D2E/DX2                !
 ! R135  R(94,103)               1.0897         estimate D2E/DX2                !
 ! R136  R(95,96)                1.471          estimate D2E/DX2                !
 ! R137  R(96,97)                1.3777         estimate D2E/DX2                !
 ! R138  R(96,98)                1.3559         estimate D2E/DX2                !
 ! R139  R(97,150)               3.0836         estimate D2E/DX2                !
 ! R140  R(99,150)               3.0924         estimate D2E/DX2                !
 ! R141  R(99,163)               3.1815         estimate D2E/DX2                !
 ! R142  R(100,150)              3.1687         estimate D2E/DX2                !
 ! R143  R(117,121)              1.4128         estimate D2E/DX2                !
 ! R144  R(117,122)              1.4585         estimate D2E/DX2                !
 ! R145  R(117,176)              1.4585         estimate D2E/DX2                !
 ! R146  R(118,119)              1.4585         estimate D2E/DX2                !
 ! R147  R(118,126)              1.4585         estimate D2E/DX2                !
 ! R148  R(118,176)              1.4128         estimate D2E/DX2                !
 ! R149  R(118,177)              1.516          estimate D2E/DX2                !
 ! R150  R(119,120)              1.4128         estimate D2E/DX2                !
 ! R151  R(119,127)              1.4585         estimate D2E/DX2                !
 ! R152  R(120,121)              1.4585         estimate D2E/DX2                !
 ! R153  R(120,130)              1.4586         estimate D2E/DX2                !
 ! R154  R(121,132)              1.4585         estimate D2E/DX2                !
 ! R155  R(122,123)              1.4584         estimate D2E/DX2                !
 ! R156  R(122,134)              1.4129         estimate D2E/DX2                !
 ! R157  R(123,124)              1.4585         estimate D2E/DX2                !
 ! R158  R(123,135)              1.4128         estimate D2E/DX2                !
 ! R159  R(124,125)              1.4128         estimate D2E/DX2                !
 ! R160  R(124,176)              1.4585         estimate D2E/DX2                !
 ! R161  R(125,172)              1.4585         estimate D2E/DX2                !
 ! R162  R(125,174)              1.4585         estimate D2E/DX2                !
 ! R163  R(126,144)              1.4585         estimate D2E/DX2                !
 ! R164  R(126,174)              1.4128         estimate D2E/DX2                !
 ! R165  R(127,128)              1.4128         estimate D2E/DX2                !
 ! R166  R(127,144)              1.4584         estimate D2E/DX2                !
 ! R167  R(128,129)              1.4587         estimate D2E/DX2                !
 ! R168  R(128,154)              1.4585         estimate D2E/DX2                !
 ! R169  R(129,130)              1.413          estimate D2E/DX2                !
 ! R170  R(129,143)              1.4585         estimate D2E/DX2                !
 ! R171  R(130,131)              1.4586         estimate D2E/DX2                !
 ! R172  R(131,132)              1.4586         estimate D2E/DX2                !
 ! R173  R(131,141)              1.4129         estimate D2E/DX2                !
 ! R174  R(132,133)              1.4129         estimate D2E/DX2                !
 ! R175  R(133,134)              1.4587         estimate D2E/DX2                !
 ! R176  R(133,139)              1.4585         estimate D2E/DX2                !
 ! R177  R(134,137)              1.4584         estimate D2E/DX2                !
 ! R178  R(135,136)              1.4585         estimate D2E/DX2                !
 ! R179  R(135,171)              1.4586         estimate D2E/DX2                !
 ! R180  R(136,137)              1.4132         estimate D2E/DX2                !
 ! R181  R(136,169)              1.4588         estimate D2E/DX2                !
 ! R182  R(137,138)              1.4589         estimate D2E/DX2                !
 ! R183  R(138,139)              1.459          estimate D2E/DX2                !
 ! R184  R(138,167)              1.4124         estimate D2E/DX2                !
 ! R185  R(139,140)              1.4133         estimate D2E/DX2                !
 ! R186  R(140,141)              1.4589         estimate D2E/DX2                !
 ! R187  R(140,165)              1.4579         estimate D2E/DX2                !
 ! R188  R(141,142)              1.4588         estimate D2E/DX2                !
 ! R189  R(142,143)              1.4134         estimate D2E/DX2                !
 ! R190  R(142,164)              1.4578         estimate D2E/DX2                !
 ! R191  R(143,153)              1.4591         estimate D2E/DX2                !
 ! R192  R(144,173)              1.4129         estimate D2E/DX2                !
 ! R193  R(145,146)              1.4123         estimate D2E/DX2                !
 ! R194  R(145,152)              1.459          estimate D2E/DX2                !
 ! R195  R(145,175)              1.4565         estimate D2E/DX2                !
 ! R196  R(146,147)              1.459          estimate D2E/DX2                !
 ! R197  R(146,155)              1.4588         estimate D2E/DX2                !
 ! R198  R(147,148)              1.4134         estimate D2E/DX2                !
 ! R199  R(147,156)              1.4584         estimate D2E/DX2                !
 ! R200  R(148,149)              1.4576         estimate D2E/DX2                !
 ! R201  R(148,159)              1.4587         estimate D2E/DX2                !
 ! R202  R(149,161)              1.4589         estimate D2E/DX2                !
 ! R203  R(149,175)              1.4114         estimate D2E/DX2                !
 ! R204  R(150,151)              1.4565         estimate D2E/DX2                !
 ! R205  R(150,163)              1.4101         estimate D2E/DX2                !
 ! R206  R(150,175)              1.4562         estimate D2E/DX2                !
 ! R207  R(151,152)              1.4569         estimate D2E/DX2                !
 ! R208  R(151,164)              1.412          estimate D2E/DX2                !
 ! R209  R(152,153)              1.4123         estimate D2E/DX2                !
 ! R210  R(153,154)              1.4589         estimate D2E/DX2                !
 ! R211  R(154,155)              1.4133         estimate D2E/DX2                !
 ! R212  R(155,173)              1.4584         estimate D2E/DX2                !
 ! R213  R(156,157)              1.413          estimate D2E/DX2                !
 ! R214  R(156,173)              1.4588         estimate D2E/DX2                !
 ! R215  R(157,158)              1.4586         estimate D2E/DX2                !
 ! R216  R(157,174)              1.4585         estimate D2E/DX2                !
 ! R217  R(158,159)              1.4128         estimate D2E/DX2                !
 ! R218  R(158,172)              1.4586         estimate D2E/DX2                !
 ! R219  R(159,160)              1.4589         estimate D2E/DX2                !
 ! R220  R(160,161)              1.4577         estimate D2E/DX2                !
 ! R221  R(160,170)              1.4132         estimate D2E/DX2                !
 ! R222  R(161,162)              1.4123         estimate D2E/DX2                !
 ! R223  R(162,163)              1.4568         estimate D2E/DX2                !
 ! R224  R(162,168)              1.4568         estimate D2E/DX2                !
 ! R225  R(163,166)              1.4566         estimate D2E/DX2                !
 ! R226  R(164,165)              1.459          estimate D2E/DX2                !
 ! R227  R(165,166)              1.4119         estimate D2E/DX2                !
 ! R228  R(166,167)              1.4569         estimate D2E/DX2                !
 ! R229  R(167,168)              1.4592         estimate D2E/DX2                !
 ! R230  R(168,169)              1.4125         estimate D2E/DX2                !
 ! R231  R(169,170)              1.459          estimate D2E/DX2                !
 ! R232  R(170,171)              1.4585         estimate D2E/DX2                !
 ! R233  R(171,172)              1.413          estimate D2E/DX2                !
 ! R234  R(176,177)              1.5043         estimate D2E/DX2                !
 ! A1    A(5,1,19)             105.921          estimate D2E/DX2                !
 ! A2    A(5,1,20)             120.8454         estimate D2E/DX2                !
 ! A3    A(19,1,20)            133.2245         estimate D2E/DX2                !
 ! A4    A(3,2,20)             121.0485         estimate D2E/DX2                !
 ! A5    A(3,2,55)             119.2731         estimate D2E/DX2                !
 ! A6    A(20,2,55)            119.6741         estimate D2E/DX2                !
 ! A7    A(2,3,4)              121.0438         estimate D2E/DX2                !
 ! A8    A(2,3,54)             119.2828         estimate D2E/DX2                !
 ! A9    A(4,3,54)             119.6678         estimate D2E/DX2                !
 ! A10   A(3,4,5)              118.1175         estimate D2E/DX2                !
 ! A11   A(3,4,53)             120.8569         estimate D2E/DX2                !
 ! A12   A(5,4,53)             121.0193         estimate D2E/DX2                !
 ! A13   A(1,5,4)              120.8378         estimate D2E/DX2                !
 ! A14   A(1,5,6)              105.931          estimate D2E/DX2                !
 ! A15   A(4,5,6)              133.2221         estimate D2E/DX2                !
 ! A16   A(5,6,7)              110.4521         estimate D2E/DX2                !
 ! A17   A(5,6,8)              122.4131         estimate D2E/DX2                !
 ! A18   A(7,6,8)              127.1339         estimate D2E/DX2                !
 ! A19   A(6,7,19)             107.2361         estimate D2E/DX2                !
 ! A20   A(6,7,99)             107.3115         estimate D2E/DX2                !
 ! A21   A(19,7,99)             83.3673         estimate D2E/DX2                !
 ! A22   A(6,8,10)             124.5286         estimate D2E/DX2                !
 ! A23   A(17,9,21)            124.4782         estimate D2E/DX2                !
 ! A24   A(8,10,11)            125.3582         estimate D2E/DX2                !
 ! A25   A(8,10,18)            127.8607         estimate D2E/DX2                !
 ! A26   A(8,10,76)             80.7827         estimate D2E/DX2                !
 ! A27   A(11,10,18)           106.7781         estimate D2E/DX2                !
 ! A28   A(11,10,76)            99.158          estimate D2E/DX2                !
 ! A29   A(18,10,76)            91.3921         estimate D2E/DX2                !
 ! A30   A(10,11,12)           131.8704         estimate D2E/DX2                !
 ! A31   A(10,11,16)           107.4173         estimate D2E/DX2                !
 ! A32   A(12,11,16)           120.6865         estimate D2E/DX2                !
 ! A33   A(11,12,13)           118.2459         estimate D2E/DX2                !
 ! A34   A(11,12,52)           120.7085         estimate D2E/DX2                !
 ! A35   A(13,12,52)           121.0402         estimate D2E/DX2                !
 ! A36   A(12,13,14)           121.1091         estimate D2E/DX2                !
 ! A37   A(12,13,51)           119.6659         estimate D2E/DX2                !
 ! A38   A(14,13,51)           119.2221         estimate D2E/DX2                !
 ! A39   A(13,14,15)           121.1717         estimate D2E/DX2                !
 ! A40   A(13,14,50)           119.1672         estimate D2E/DX2                !
 ! A41   A(15,14,50)           119.6602         estimate D2E/DX2                !
 ! A42   A(14,15,16)           118.299          estimate D2E/DX2                !
 ! A43   A(14,15,49)           120.9927         estimate D2E/DX2                !
 ! A44   A(16,15,49)           120.7069         estimate D2E/DX2                !
 ! A45   A(11,16,15)           120.4877         estimate D2E/DX2                !
 ! A46   A(11,16,17)           107.4            estimate D2E/DX2                !
 ! A47   A(15,16,17)           132.0955         estimate D2E/DX2                !
 ! A48   A(9,17,16)            125.5977         estimate D2E/DX2                !
 ! A49   A(9,17,18)            127.662          estimate D2E/DX2                !
 ! A50   A(9,17,67)             93.4649         estimate D2E/DX2                !
 ! A51   A(16,17,18)           106.7384         estimate D2E/DX2                !
 ! A52   A(16,17,67)            90.443          estimate D2E/DX2                !
 ! A53   A(18,17,67)            85.0301         estimate D2E/DX2                !
 ! A54   A(10,18,17)           111.6634         estimate D2E/DX2                !
 ! A55   A(10,18,42)           124.2751         estimate D2E/DX2                !
 ! A56   A(17,18,42)           124.0352         estimate D2E/DX2                !
 ! A57   A(1,19,7)             110.458          estimate D2E/DX2                !
 ! A58   A(1,19,32)            122.4354         estimate D2E/DX2                !
 ! A59   A(7,19,32)            127.1026         estimate D2E/DX2                !
 ! A60   A(1,20,2)             118.1069         estimate D2E/DX2                !
 ! A61   A(1,20,56)            121.0293         estimate D2E/DX2                !
 ! A62   A(2,20,56)            120.8587         estimate D2E/DX2                !
 ! A63   A(9,21,33)            122.2476         estimate D2E/DX2                !
 ! A64   A(9,21,39)            127.3433         estimate D2E/DX2                !
 ! A65   A(33,21,39)           110.3875         estimate D2E/DX2                !
 ! A66   A(33,22,34)           118.148          estimate D2E/DX2                !
 ! A67   A(33,22,48)           121.0646         estimate D2E/DX2                !
 ! A68   A(34,22,48)           120.785          estimate D2E/DX2                !
 ! A69   A(24,23,31)           106.7244         estimate D2E/DX2                !
 ! A70   A(24,23,40)           125.5983         estimate D2E/DX2                !
 ! A71   A(24,23,98)            94.1994         estimate D2E/DX2                !
 ! A72   A(31,23,40)           127.6761         estimate D2E/DX2                !
 ! A73   A(31,23,98)            81.7124         estimate D2E/DX2                !
 ! A74   A(40,23,98)            93.2402         estimate D2E/DX2                !
 ! A75   A(23,24,25)           132.1031         estimate D2E/DX2                !
 ! A76   A(23,24,29)           107.4124         estimate D2E/DX2                !
 ! A77   A(25,24,29)           120.4671         estimate D2E/DX2                !
 ! A78   A(24,25,26)           118.3093         estimate D2E/DX2                !
 ! A79   A(24,25,44)           120.7128         estimate D2E/DX2                !
 ! A80   A(26,25,44)           120.9766         estimate D2E/DX2                !
 ! A81   A(25,26,27)           121.1727         estimate D2E/DX2                !
 ! A82   A(25,26,43)           119.6584         estimate D2E/DX2                !
 ! A83   A(27,26,43)           119.1684         estimate D2E/DX2                !
 ! A84   A(26,27,28)           121.0994         estimate D2E/DX2                !
 ! A85   A(26,27,58)           119.2161         estimate D2E/DX2                !
 ! A86   A(28,27,58)           119.6822         estimate D2E/DX2                !
 ! A87   A(27,28,29)           118.2479         estimate D2E/DX2                !
 ! A88   A(27,28,57)           121.0417         estimate D2E/DX2                !
 ! A89   A(29,28,57)           120.7052         estimate D2E/DX2                !
 ! A90   A(24,29,28)           120.7035         estimate D2E/DX2                !
 ! A91   A(24,29,30)           107.4138         estimate D2E/DX2                !
 ! A92   A(28,29,30)           131.8528         estimate D2E/DX2                !
 ! A93   A(29,30,31)           106.7848         estimate D2E/DX2                !
 ! A94   A(29,30,32)           125.3433         estimate D2E/DX2                !
 ! A95   A(31,30,32)           127.8644         estimate D2E/DX2                !
 ! A96   A(23,31,30)           111.6616         estimate D2E/DX2                !
 ! A97   A(23,31,41)           124.045          estimate D2E/DX2                !
 ! A98   A(30,31,41)           124.2685         estimate D2E/DX2                !
 ! A99   A(19,32,30)           124.4994         estimate D2E/DX2                !
 ! A100  A(21,33,22)           133.2034         estimate D2E/DX2                !
 ! A101  A(21,33,37)           105.934          estimate D2E/DX2                !
 ! A102  A(22,33,37)           120.8339         estimate D2E/DX2                !
 ! A103  A(22,34,35)           121.0195         estimate D2E/DX2                !
 ! A104  A(22,34,47)           119.6875         estimate D2E/DX2                !
 ! A105  A(35,34,47)           119.2924         estimate D2E/DX2                !
 ! A106  A(34,35,36)           121.0258         estimate D2E/DX2                !
 ! A107  A(34,35,46)           119.296          estimate D2E/DX2                !
 ! A108  A(36,35,46)           119.6775         estimate D2E/DX2                !
 ! A109  A(35,36,37)           118.1472         estimate D2E/DX2                !
 ! A110  A(35,36,45)           120.7891         estimate D2E/DX2                !
 ! A111  A(37,36,45)           121.0616         estimate D2E/DX2                !
 ! A112  A(33,37,36)           120.8256         estimate D2E/DX2                !
 ! A113  A(33,37,38)           105.9337         estimate D2E/DX2                !
 ! A114  A(36,37,38)           133.212          estimate D2E/DX2                !
 ! A115  A(37,38,39)           110.3773         estimate D2E/DX2                !
 ! A116  A(37,38,40)           122.2684         estimate D2E/DX2                !
 ! A117  A(39,38,40)           127.326          estimate D2E/DX2                !
 ! A118  A(21,39,38)           107.3604         estimate D2E/DX2                !
 ! A119  A(23,40,38)           124.4967         estimate D2E/DX2                !
 ! A120  A(18,42,97)           104.1483         estimate D2E/DX2                !
 ! A121  A(63,59,77)           105.9431         estimate D2E/DX2                !
 ! A122  A(63,59,78)           120.8556         estimate D2E/DX2                !
 ! A123  A(77,59,78)           133.2            estimate D2E/DX2                !
 ! A124  A(61,60,78)           121.0227         estimate D2E/DX2                !
 ! A125  A(61,60,113)          119.2942         estimate D2E/DX2                !
 ! A126  A(78,60,113)          119.6831         estimate D2E/DX2                !
 ! A127  A(60,61,62)           121.0322         estimate D2E/DX2                !
 ! A128  A(60,61,112)          119.2922         estimate D2E/DX2                !
 ! A129  A(62,61,112)          119.6757         estimate D2E/DX2                !
 ! A130  A(61,62,63)           118.1313         estimate D2E/DX2                !
 ! A131  A(61,62,111)          120.8068         estimate D2E/DX2                !
 ! A132  A(63,62,111)          121.0609         estimate D2E/DX2                !
 ! A133  A(59,63,62)           120.8317         estimate D2E/DX2                !
 ! A134  A(59,63,64)           105.9219         estimate D2E/DX2                !
 ! A135  A(62,63,64)           133.2453         estimate D2E/DX2                !
 ! A136  A(63,64,65)           110.387          estimate D2E/DX2                !
 ! A137  A(63,64,66)           122.3575         estimate D2E/DX2                !
 ! A138  A(65,64,66)           127.2222         estimate D2E/DX2                !
 ! A139  A(64,65,77)           107.3631         estimate D2E/DX2                !
 ! A140  A(64,65,163)          103.527          estimate D2E/DX2                !
 ! A141  A(77,65,163)          104.6579         estimate D2E/DX2                !
 ! A142  A(64,66,68)           124.4034         estimate D2E/DX2                !
 ! A143  A(17,67,75)            93.9976         estimate D2E/DX2                !
 ! A144  A(17,67,79)            90.2316         estimate D2E/DX2                !
 ! A145  A(75,67,79)           124.5549         estimate D2E/DX2                !
 ! A146  A(66,68,69)           125.3956         estimate D2E/DX2                !
 ! A147  A(66,68,76)           127.8374         estimate D2E/DX2                !
 ! A148  A(69,68,76)           106.7491         estimate D2E/DX2                !
 ! A149  A(68,69,70)           132.0614         estimate D2E/DX2                !
 ! A150  A(68,69,74)           107.416          estimate D2E/DX2                !
 ! A151  A(70,69,74)           120.5201         estimate D2E/DX2                !
 ! A152  A(69,70,71)           118.2692         estimate D2E/DX2                !
 ! A153  A(69,70,110)          120.7188         estimate D2E/DX2                !
 ! A154  A(71,70,110)          121.0119         estimate D2E/DX2                !
 ! A155  A(70,71,72)           121.1631         estimate D2E/DX2                !
 ! A156  A(70,71,109)          119.6486         estimate D2E/DX2                !
 ! A157  A(72,71,109)          119.1883         estimate D2E/DX2                !
 ! A158  A(71,72,73)           121.1202         estimate D2E/DX2                !
 ! A159  A(71,72,108)          119.192          estimate D2E/DX2                !
 ! A160  A(73,72,108)          119.6875         estimate D2E/DX2                !
 ! A161  A(72,73,74)           118.225          estimate D2E/DX2                !
 ! A162  A(72,73,107)          121.0818         estimate D2E/DX2                !
 ! A163  A(74,73,107)          120.6914         estimate D2E/DX2                !
 ! A164  A(69,74,73)           120.7018         estimate D2E/DX2                !
 ! A165  A(69,74,75)           107.4214         estimate D2E/DX2                !
 ! A166  A(73,74,75)           131.8768         estimate D2E/DX2                !
 ! A167  A(67,75,74)           125.2231         estimate D2E/DX2                !
 ! A168  A(67,75,76)           127.9626         estimate D2E/DX2                !
 ! A169  A(74,75,76)           106.8084         estimate D2E/DX2                !
 ! A170  A(10,76,68)            93.7752         estimate D2E/DX2                !
 ! A171  A(10,76,75)            82.4047         estimate D2E/DX2                !
 ! A172  A(10,76,100)           93.2206         estimate D2E/DX2                !
 ! A173  A(68,76,75)           111.5997         estimate D2E/DX2                !
 ! A174  A(68,76,100)          124.1354         estimate D2E/DX2                !
 ! A175  A(75,76,100)          124.2646         estimate D2E/DX2                !
 ! A176  A(59,77,65)           110.3808         estimate D2E/DX2                !
 ! A177  A(59,77,90)           122.3456         estimate D2E/DX2                !
 ! A178  A(65,77,90)           127.2355         estimate D2E/DX2                !
 ! A179  A(59,78,60)           118.1259         estimate D2E/DX2                !
 ! A180  A(59,78,114)          121.0441         estimate D2E/DX2                !
 ! A181  A(60,78,114)          120.8289         estimate D2E/DX2                !
 ! A182  A(67,79,91)           122.2138         estimate D2E/DX2                !
 ! A183  A(67,79,97)           127.2003         estimate D2E/DX2                !
 ! A184  A(91,79,97)           110.4895         estimate D2E/DX2                !
 ! A185  A(91,80,92)           118.0753         estimate D2E/DX2                !
 ! A186  A(91,80,106)          121.0365         estimate D2E/DX2                !
 ! A187  A(92,80,106)          120.885          estimate D2E/DX2                !
 ! A188  A(82,81,89)           106.7994         estimate D2E/DX2                !
 ! A189  A(82,81,98)           125.1724         estimate D2E/DX2                !
 ! A190  A(89,81,98)           128.0069         estimate D2E/DX2                !
 ! A191  A(81,82,83)           131.8659         estimate D2E/DX2                !
 ! A192  A(81,82,87)           107.4228         estimate D2E/DX2                !
 ! A193  A(83,82,87)           120.7103         estimate D2E/DX2                !
 ! A194  A(82,83,84)           118.2156         estimate D2E/DX2                !
 ! A195  A(82,83,102)          120.7056         estimate D2E/DX2                !
 ! A196  A(84,83,102)          121.0757         estimate D2E/DX2                !
 ! A197  A(83,84,85)           121.1212         estimate D2E/DX2                !
 ! A198  A(83,84,101)          119.6785         estimate D2E/DX2                !
 ! A199  A(85,84,101)          119.1998         estimate D2E/DX2                !
 ! A200  A(84,85,86)           121.1652         estimate D2E/DX2                !
 ! A201  A(84,85,116)          119.1851         estimate D2E/DX2                !
 ! A202  A(86,85,116)          119.6497         estimate D2E/DX2                !
 ! A203  A(85,86,87)           118.2682         estimate D2E/DX2                !
 ! A204  A(85,86,115)          121.0252         estimate D2E/DX2                !
 ! A205  A(87,86,115)          120.7066         estimate D2E/DX2                !
 ! A206  A(82,87,86)           120.5184         estimate D2E/DX2                !
 ! A207  A(82,87,88)           107.4081         estimate D2E/DX2                !
 ! A208  A(86,87,88)           132.0692         estimate D2E/DX2                !
 ! A209  A(87,88,89)           106.7714         estimate D2E/DX2                !
 ! A210  A(87,88,90)           125.3836         estimate D2E/DX2                !
 ! A211  A(89,88,90)           127.8276         estimate D2E/DX2                !
 ! A212  A(81,89,88)           111.5884         estimate D2E/DX2                !
 ! A213  A(81,89,99)           124.2816         estimate D2E/DX2                !
 ! A214  A(88,89,99)           124.1264         estimate D2E/DX2                !
 ! A215  A(77,90,88)           124.4325         estimate D2E/DX2                !
 ! A216  A(79,91,80)           133.183          estimate D2E/DX2                !
 ! A217  A(79,91,95)           105.9205         estimate D2E/DX2                !
 ! A218  A(80,91,95)           120.8913         estimate D2E/DX2                !
 ! A219  A(80,92,93)           121.0433         estimate D2E/DX2                !
 ! A220  A(80,92,105)          119.6691         estimate D2E/DX2                !
 ! A221  A(93,92,105)          119.2854         estimate D2E/DX2                !
 ! A222  A(92,93,94)           121.0657         estimate D2E/DX2                !
 ! A223  A(92,93,104)          119.2543         estimate D2E/DX2                !
 ! A224  A(94,93,104)          119.6774         estimate D2E/DX2                !
 ! A225  A(93,94,95)           118.0874         estimate D2E/DX2                !
 ! A226  A(93,94,103)          120.8737         estimate D2E/DX2                !
 ! A227  A(95,94,103)          121.035          estimate D2E/DX2                !
 ! A228  A(91,95,94)           120.8358         estimate D2E/DX2                !
 ! A229  A(91,95,96)           105.912          estimate D2E/DX2                !
 ! A230  A(94,95,96)           133.2465         estimate D2E/DX2                !
 ! A231  A(95,96,97)           110.4906         estimate D2E/DX2                !
 ! A232  A(95,96,98)           122.2414         estimate D2E/DX2                !
 ! A233  A(97,96,98)           127.1522         estimate D2E/DX2                !
 ! A234  A(42,97,79)            86.3257         estimate D2E/DX2                !
 ! A235  A(42,97,96)           109.4953         estimate D2E/DX2                !
 ! A236  A(42,97,150)          146.9677         estimate D2E/DX2                !
 ! A237  A(79,97,96)           107.154          estimate D2E/DX2                !
 ! A238  A(79,97,150)          103.3701         estimate D2E/DX2                !
 ! A239  A(96,97,150)           97.8277         estimate D2E/DX2                !
 ! A240  A(23,98,81)            94.1309         estimate D2E/DX2                !
 ! A241  A(23,98,96)            95.2055         estimate D2E/DX2                !
 ! A242  A(81,98,96)           124.5887         estimate D2E/DX2                !
 ! A243  A(7,99,89)            113.1578         estimate D2E/DX2                !
 ! A244  A(7,99,150)           148.6214         estimate D2E/DX2                !
 ! A245  A(7,99,163)           140.3344         estimate D2E/DX2                !
 ! A246  A(89,99,150)           97.5421         estimate D2E/DX2                !
 ! A247  A(89,99,163)          101.7026         estimate D2E/DX2                !
 ! A248  A(76,100,150)         106.3095         estimate D2E/DX2                !
 ! A249  A(121,117,122)        119.9935         estimate D2E/DX2                !
 ! A250  A(121,117,176)        120.0007         estimate D2E/DX2                !
 ! A251  A(122,117,176)        108.0008         estimate D2E/DX2                !
 ! A252  A(119,118,126)        107.995          estimate D2E/DX2                !
 ! A253  A(119,118,176)        120.0021         estimate D2E/DX2                !
 ! A254  A(119,118,177)        120.7909         estimate D2E/DX2                !
 ! A255  A(126,118,176)        120.0013         estimate D2E/DX2                !
 ! A256  A(126,118,177)        120.4316         estimate D2E/DX2                !
 ! A257  A(118,119,120)        119.998          estimate D2E/DX2                !
 ! A258  A(118,119,127)        108.0043         estimate D2E/DX2                !
 ! A259  A(120,119,127)        119.9922         estimate D2E/DX2                !
 ! A260  A(119,120,121)        120.0017         estimate D2E/DX2                !
 ! A261  A(119,120,130)        120.0105         estimate D2E/DX2                !
 ! A262  A(121,120,130)        108.0058         estimate D2E/DX2                !
 ! A263  A(117,121,120)        119.9995         estimate D2E/DX2                !
 ! A264  A(117,121,132)        120.0136         estimate D2E/DX2                !
 ! A265  A(120,121,132)        107.9989         estimate D2E/DX2                !
 ! A266  A(117,122,123)        107.9982         estimate D2E/DX2                !
 ! A267  A(117,122,134)        120.0027         estimate D2E/DX2                !
 ! A268  A(123,122,134)        119.9979         estimate D2E/DX2                !
 ! A269  A(122,123,124)        108.0037         estimate D2E/DX2                !
 ! A270  A(122,123,135)        119.9949         estimate D2E/DX2                !
 ! A271  A(124,123,135)        120.0049         estimate D2E/DX2                !
 ! A272  A(123,124,125)        119.9972         estimate D2E/DX2                !
 ! A273  A(123,124,176)        107.999          estimate D2E/DX2                !
 ! A274  A(125,124,176)        120.0061         estimate D2E/DX2                !
 ! A275  A(124,125,172)        120.009          estimate D2E/DX2                !
 ! A276  A(124,125,174)        119.996          estimate D2E/DX2                !
 ! A277  A(172,125,174)        108.003          estimate D2E/DX2                !
 ! A278  A(118,126,144)        108.0006         estimate D2E/DX2                !
 ! A279  A(118,126,174)        120.0028         estimate D2E/DX2                !
 ! A280  A(144,126,174)        120.001          estimate D2E/DX2                !
 ! A281  A(119,127,128)        120.0114         estimate D2E/DX2                !
 ! A282  A(119,127,144)        107.9965         estimate D2E/DX2                !
 ! A283  A(128,127,144)        119.9943         estimate D2E/DX2                !
 ! A284  A(127,128,129)        119.9949         estimate D2E/DX2                !
 ! A285  A(127,128,154)        120.0156         estimate D2E/DX2                !
 ! A286  A(129,128,154)        108.0285         estimate D2E/DX2                !
 ! A287  A(128,129,130)        119.9932         estimate D2E/DX2                !
 ! A288  A(128,129,143)        108.0159         estimate D2E/DX2                !
 ! A289  A(130,129,143)        120.0177         estimate D2E/DX2                !
 ! A290  A(120,130,129)        119.9978         estimate D2E/DX2                !
 ! A291  A(120,130,131)        107.9939         estimate D2E/DX2                !
 ! A292  A(129,130,131)        120.0228         estimate D2E/DX2                !
 ! A293  A(130,131,132)        108.0016         estimate D2E/DX2                !
 ! A294  A(130,131,141)        119.9983         estimate D2E/DX2                !
 ! A295  A(132,131,141)        120.0063         estimate D2E/DX2                !
 ! A296  A(121,132,131)        107.9999         estimate D2E/DX2                !
 ! A297  A(121,132,133)        119.9951         estimate D2E/DX2                !
 ! A298  A(131,132,133)        120.0134         estimate D2E/DX2                !
 ! A299  A(132,133,134)        119.9921         estimate D2E/DX2                !
 ! A300  A(132,133,139)        120.0224         estimate D2E/DX2                !
 ! A301  A(134,133,139)        108.0212         estimate D2E/DX2                !
 ! A302  A(122,134,133)        120.0029         estimate D2E/DX2                !
 ! A303  A(122,134,137)        120.0137         estimate D2E/DX2                !
 ! A304  A(133,134,137)        108.0191         estimate D2E/DX2                !
 ! A305  A(123,135,136)        120.0156         estimate D2E/DX2                !
 ! A306  A(123,135,171)        119.9981         estimate D2E/DX2                !
 ! A307  A(136,135,171)        108.0216         estimate D2E/DX2                !
 ! A308  A(135,136,137)        119.9888         estimate D2E/DX2                !
 ! A309  A(135,136,169)        107.9719         estimate D2E/DX2                !
[...]
    138          6           0       -4.150320    2.793120    1.427523
    139          6           0       -4.470922    1.969905    2.623500
    140          6           0       -3.527809    1.000344    3.101051
    141          6           0       -3.997582   -0.338240    3.550772
    142          6           0       -2.987337   -1.347029    3.130676
    143          6           0       -3.408932   -2.642512    2.681649
    144          6           0       -6.265068   -3.668821   -0.815444
    145          6           0       -1.655931   -2.588629   -0.670078
    146          6           0       -2.662763   -3.287580   -1.414223
    147          6           0       -3.242658   -2.671740   -2.637253
    148          6           0       -2.793375   -1.380968   -3.073197
    149          6           0       -1.748633   -0.658200   -2.303736
    150          6           0       -0.953211   -0.413923    0.083453
    151          6           0       -1.270369   -1.235876    1.280966
    152          6           0       -1.702407   -2.580220    0.816579
    153          6           0       -2.753942   -3.271285    1.504093
    154          6           0       -3.797896   -3.996487    0.732152
    155          6           0       -3.753150   -4.004423   -0.701013
    156          6           0       -4.689167   -3.009363   -2.680205
    157          6           0       -5.638286   -2.040505   -3.157354
    158          6           0       -5.171406   -0.698971   -3.606517
    159          6           0       -3.775166   -0.376999   -3.566231
    160          6           0       -3.334091    0.966640   -3.102436
    161          6           0       -2.083050    0.792062   -2.321473
    162          6           0       -1.849632    1.594588   -1.157119
    163          6           0       -1.273488    0.977421    0.066859
    164          6           0       -1.896369   -0.632217    2.420174
    165          6           0       -2.230032    0.817876    2.402208
    166          6           0       -1.924805    1.607187    1.245718
    167          6           0       -2.898473    2.615328    0.751327
    168          6           0       -2.852169    2.607313   -0.735312
    169          6           0       -4.059146    2.777362   -1.490449
    170          6           0       -4.304803    1.941054   -2.695031
    171          6           0       -5.753032    1.611316   -2.738394
    172          6           0       -6.180139    0.313912   -3.187053
    173          6           0       -5.005094   -3.834718   -1.486987
    174          6           0       -6.937375   -1.869016   -2.461784
    175          6           0       -1.196344   -1.249570   -1.121029
    176          6           0       -8.265796   -0.594859   -0.142964
    177          8           0       -9.391271   -1.621210   -0.175752
 ---------------------------------------------------------------------
 Rotational constants (GHZ):           0.0165112           0.0101361           0.0100924
 Leave Link  202 at Sat Jan 28 20:40:16 2023, MaxMem=  4026531840 cpu:               1.0 elap:               0.2
 (Enter /software/gaussian/g16-c01/avx/g16/l301.exe)
 Standard basis: STO-5G (5D, 7F)
 Ernie: Thresh=  0.10000D-02 Tol=  0.10000D-05 Strict=F.
 There are   741 symmetry adapted cartesian basis functions of A   symmetry.
 There are   741 symmetry adapted basis functions of A   symmetry.
   741 basis functions,  3705 primitive gaussians,   741 cartesian basis functions
   450 alpha electrons      450 beta electrons
       nuclear repulsion energy     33387.0086857970 Hartrees.
 IExCor=  402 DFT=T Ex=B Corr=LYP ExCW=0 ScaHFX=  0.000000
 ScaDFX=  1.000000  1.000000  1.000000  1.000000 ScalE2=  1.000000  1.000000
 IRadAn=      5 IRanWt=     -1 IRanGd=            0 ICorTp=0 IEmpDi=  4
 NAtoms=  177 NActive=  177 NUniq=  177 SFac= 1.00D+00 NAtFMM=   60 NAOKFM=T Big=T
 Integral buffers will be    131072 words long.
 Raffenetti 2 integral format.
 Two-electron integral symmetry is turned on.
 Leave Link  301 at Sat Jan 28 20:40:17 2023, MaxMem=  4026531840 cpu:               0.6 elap:               0.1
 (Enter /software/gaussian/g16-c01/avx/g16/l302.exe)
 NPDir=0 NMtPBC=     1 NCelOv=     1 NCel=       1 NClECP=     1 NCelD=      1
         NCelK=      1 NCelE2=     1 NClLst=     1 CellRange=     0.0.
 One-electron integrals computed using PRISM.
 One-electron integral symmetry used in STVInt
 NBasis=   741 RedAO= T EigKep=  1.91D-01  NBF=   741
 NBsUse=   741 1.00D-06 EigRej= -1.00D+00 NBFU=   741
 Precomputing XC quadrature grid using
 IXCGrd= 4 IRadAn=           5 IRanWt=          -1 IRanGd=           0 AccXCQ= 0.00D+00.
 Generated NRdTot=       0 NPtTot=           0 NUsed=           0 NTot=          32
 NSgBfM=   649   648   649   649   649 MxSgAt=   177 MxSgA2=   177.
 Leave Link  302 at Sat Jan 28 20:40:26 2023, MaxMem=  4026531840 cpu:             108.1 elap:               9.5
 (Enter /software/gaussian/g16-c01/avx/g16/l303.exe)
 DipDrv:  MaxL=1.
 Leave Link  303 at Sat Jan 28 20:40:27 2023, MaxMem=  4026531840 cpu:               9.0 elap:               1.2
 (Enter /software/gaussian/g16-c01/avx/g16/l401.exe)
 Initial guess from the checkpoint file:  "geometry.chk"
 B after Tr=    -0.000000   -0.000000    0.000000
         Rot=    0.999982   -0.005765   -0.000991   -0.001294 Ang=  -0.69 deg.
 Guess basis will be translated and rotated to current coordinates.
 JPrj=2 DoOrth=T DoCkMO=T.
 Generating alternative initial guess.
 ExpMin= 1.14D-01 ExpMax= 6.63D+02 ExpMxC= 6.63D+02 IAcc=3 IRadAn=         5 AccDes= 0.00D+00
 Harris functional with IExCor=  402 and IRadAn=       5 diagonalized for initial guess.
 HarFok:  IExCor=  402 AccDes= 0.00D+00 IRadAn=         5 IDoV= 1 UseB2=F ITyADJ=14
 ICtDFT=  3500011 ScaDFX=  1.000000  1.000000  1.000000  1.000000
 FoFCou: FMM=F IPFlag=           0 FMFlag=      100000 FMFlg1=        2001
         NFxFlg=           0 DoJE=T BraDBF=F KetDBF=T FulRan=T
         wScrn=  0.000000 ICntrl=       500 IOpCl=  0 I1Cent=   200000004 NGrid=           0
         NMat0=    1 NMatS0=      1 NMatT0=    0 NMatD0=    1 NMtDS0=    0 NMtDT0=    0
 Petite list used in FoFCou.
 Harris En= -5677.47262036127    
 Leave Link  401 at Sat Jan 28 20:40:55 2023, MaxMem=  4026531840 cpu:             314.9 elap:              27.3
 (Enter /software/gaussian/g16-c01/avx/g16/l502.exe)
 Integral symmetry usage will be decided dynamically.
 Closed shell SCF:
 Using DIIS extrapolation, IDIIS=  1040.
 NGot=  4026531840 LenX=  4025408849 LenY=  4024859027
 Requested convergence on RMS density matrix=1.00D-08 within 128 cycles.
 Requested convergence on MAX density matrix=1.00D-06.
 Requested convergence on             energy=1.00D-06.
 No special actions if energy rises.
 Fock matrices will be formed incrementally for  20 cycles.
 Integral accuracy reduced to 1.0D-05 until final iterations.

 Cycle   1  Pass 0  IDiag  1:
 FoFJK:  IHMeth= 1 ICntrl=     500 DoSepK=F KAlg= 0 I1Cent=           0 FoldK=F
 IRaf= 990000000 NMat=       1 IRICut=       1 DoRegI=T DoRafI=F ISym2E= 0 IDoP0=0 IntGTp=1.
 FoFCou: FMM=T IPFlag=           0 FMFlag=      100000 FMFlg1=        2001
         NFxFlg=           0 DoJE=T BraDBF=F KetDBF=F FulRan=T
         wScrn=  0.000000 ICntrl=       500 IOpCl=  0 I1Cent=           0 NGrid=           0
         NMat0=    1 NMatS0=      1 NMatT0=    0 NMatD0=    1 NMtDS0=    0 NMtDT0=    0
 Symmetry not used in FoFCou.
 FMM levels:  10  Number of levels for PrismC:   9
 E= -5677.23900491859    
 DIIS: error= 4.64D-03 at cycle   1 NSaved=   1.
 NSaved= 1 IEnMin= 1 EnMin= -5677.23900491859     IErMin= 1 ErrMin= 4.64D-03
 ErrMax= 4.64D-03  0.00D+00 EMaxC= 1.00D-01 BMatC= 9.87D-03 BMatP= 9.87D-03
 IDIUse=3 WtCom= 9.54D-01 WtEn= 4.64D-02
 Coeff-Com:  0.100D+01
 Coeff-En:   0.100D+01
 Coeff:      0.100D+01
 Gap=     0.334 Goal=   None    Shift=    0.000
 GapD=    0.334 DampG=1.000 DampE=1.000 DampFc=1.0000 IDamp=-1.
 RMSDP=4.40D-04 MaxDP=3.01D-02              OVMax= 0.00D+00

 Cycle   2  Pass 0  IDiag  1:
 RMSU=  4.36D-04    CP:  1.00D+00
 E= -5677.25595769245     Delta-E=       -0.016952773862 Rises=F Damp=F
 DIIS: error= 2.40D-03 at cycle   2 NSaved=   2.
 NSaved= 2 IEnMin= 2 EnMin= -5677.25595769245     IErMin= 2 ErrMin= 2.40D-03
 ErrMax= 2.40D-03  0.00D+00 EMaxC= 1.00D-01 BMatC= 2.20D-03 BMatP= 9.87D-03
 IDIUse=3 WtCom= 9.76D-01 WtEn= 2.40D-02
 Coeff-Com:  0.233D+00 0.767D+00
 Coeff-En:   0.000D+00 0.100D+01
 Coeff:      0.227D+00 0.773D+00
 Gap=     0.047 Goal=   None    Shift=    0.000
 RMSDP=2.41D-04 MaxDP=3.07D-02 DE=-1.70D-02 OVMax= 0.00D+00

 Cycle   3  Pass 0  IDiag  1:
 RMSU=  2.35D-04    CP:  1.00D+00  8.76D-01
 E= -5677.24727662640     Delta-E=        0.008681066058 Rises=F Damp=F
 DIIS: error= 4.77D-03 at cycle   3 NSaved=   3.
 NSaved= 3 IEnMin= 2 EnMin= -5677.25595769245     IErMin= 2 ErrMin= 2.40D-03
 ErrMax= 4.77D-03  0.00D+00 EMaxC= 1.00D-01 BMatC= 9.13D-03 BMatP= 2.20D-03
 IDIUse=3 WtCom= 1.26D-01 WtEn= 8.74D-01
 Coeff-Com:  0.403D-01 0.654D+00 0.305D+00
 Coeff-En:   0.000D+00 0.739D+00 0.261D+00
 Coeff:      0.510D-02 0.728D+00 0.267D+00
 Gap=     0.047 Goal=   None    Shift=    0.000
 RMSDP=1.61D-04 MaxDP=1.67D-02 DE= 8.68D-03 OVMax= 0.00D+00

 Cycle   4  Pass 0  IDiag  1:
 RMSU=  6.67D-05    CP:  1.00D+00  9.17D-01  3.82D-01
 E= -5677.25768046413     Delta-E=       -0.010403837732 Rises=F Damp=F
 DIIS: error= 1.54D-03 at cycle   4 NSaved=   4.
 NSaved= 4 IEnMin= 4 EnMin= -5677.25768046413     IErMin= 4 ErrMin= 1.54D-03
 ErrMax= 1.54D-03  0.00D+00 EMaxC= 1.00D-01 BMatC= 7.11D-04 BMatP= 2.20D-03
 IDIUse=3 WtCom= 9.85D-01 WtEn= 1.54D-02
 Coeff-Com:  0.150D-01 0.486D+00 0.184D+00 0.315D+00
 Coeff-En:   0.000D+00 0.277D+00 0.000D+00 0.723D+00
 Coeff:      0.147D-01 0.483D+00 0.182D+00 0.321D+00
 Gap=     0.047 Goal=   None    Shift=    0.000
 RMSDP=6.38D-05 MaxDP=7.23D-03 DE=-1.04D-02 OVMax= 0.00D+00

 Cycle   5  Pass 0  IDiag  1:
 RMSU=  2.58D-05    CP:  1.00D+00  9.35D-01  3.10D-01  1.71D-01
 E= -5677.25852337282     Delta-E=       -0.000842908696 Rises=F Damp=F
 DIIS: error= 3.90D-04 at cycle   5 NSaved=   5.
 NSaved= 5 IEnMin= 5 EnMin= -5677.25852337282     IErMin= 5 ErrMin= 3.90D-04
 ErrMax= 3.90D-04  0.00D+00 EMaxC= 1.00D-01 BMatC= 6.43D-05 BMatP= 7.11D-04
 IDIUse=3 WtCom= 9.96D-01 WtEn= 3.90D-03
 Coeff-Com:  0.741D-02 0.295D+00 0.103D+00 0.253D+00 0.341D+00
 Coeff-En:   0.000D+00 0.000D+00 0.000D+00 0.975D-01 0.903D+00
 Coeff:      0.738D-02 0.294D+00 0.103D+00 0.252D+00 0.343D+00
 Gap=     0.047 Goal=   None    Shift=    0.000
 RMSDP=2.35D-05 MaxDP=1.56D-03 DE=-8.43D-04 OVMax= 0.00D+00

 Cycle   6  Pass 0  IDiag  1:
 RMSU=  8.67D-06    CP:  1.00D+00  9.38D-01  3.03D-01  3.49D-01  2.94D-01
 E= -5677.25862577169     Delta-E=       -0.000102398866 Rises=F Damp=F
 DIIS: error= 1.72D-04 at cycle   6 NSaved=   6.
 NSaved= 6 IEnMin= 6 EnMin= -5677.25862577169     IErMin= 6 ErrMin= 1.72D-04
 ErrMax= 1.72D-04  0.00D+00 EMaxC= 1.00D-01 BMatC= 7.33D-06 BMatP= 6.43D-05
 IDIUse=3 WtCom= 9.98D-01 WtEn= 1.72D-03
 Coeff-Com:  0.319D-02 0.143D+00 0.486D-01 0.140D+00 0.267D+00 0.399D+00
 Coeff-En:   0.000D+00 0.000D+00 0.000D+00 0.000D+00 0.106D+00 0.894D+00
 Coeff:      0.319D-02 0.143D+00 0.486D-01 0.139D+00 0.267D+00 0.399D+00
 Gap=     0.047 Goal=   None    Shift=    0.000
 RMSDP=7.59D-06 MaxDP=5.08D-04 DE=-1.02D-04 OVMax= 0.00D+00

 Initial convergence to 1.0D-05 achieved.  Increase integral accuracy.
 Cycle   7  Pass 1  IDiag  1:
 E= -5677.25863440843     Delta-E=       -0.000008636744 Rises=F Damp=F
 DIIS: error= 6.80D-05 at cycle   1 NSaved=   1.
 NSaved= 1 IEnMin= 1 EnMin= -5677.25863440843     IErMin= 1 ErrMin= 6.80D-05
 ErrMax= 6.80D-05  0.00D+00 EMaxC= 1.00D-01 BMatC= 4.73D-06 BMatP= 4.73D-06
 IDIUse=1 WtCom= 1.00D+00 WtEn= 0.00D+00
 Coeff-Com:  0.100D+01
 Coeff:      0.100D+01
 Gap=     0.047 Goal=   None    Shift=    0.000
 RMSDP=7.59D-06 MaxDP=5.08D-04 DE=-8.64D-06 OVMax= 0.00D+00

 Cycle   8  Pass 1  IDiag  1:
 RMSU=  1.44D-05    CP:  1.00D+00
 E= -5677.25862307580     Delta-E=        0.000011332639 Rises=F Damp=F
 DIIS: error= 2.52D-04 at cycle   2 NSaved=   2.
 NSaved= 2 IEnMin= 1 EnMin= -5677.25863440843     IErMin= 1 ErrMin= 6.80D-05
 ErrMax= 2.52D-04  0.00D+00 EMaxC= 1.00D-01 BMatC= 1.36D-05 BMatP= 4.73D-06
 IDIUse=3 WtCom= 3.87D-01 WtEn= 6.13D-01
 Coeff-Com:  0.670D+00 0.330D+00
 Coeff-En:   0.688D+00 0.312D+00
 Coeff:      0.681D+00 0.319D+00
 Gap=     0.047 Goal=   None    Shift=    0.000
 RMSDP=1.31D-05 MaxDP=7.55D-04 DE= 1.13D-05 OVMax= 0.00D+00

 Cycle   9  Pass 1  IDiag  1:
 RMSU=  8.62D-06    CP:  1.00D+00  3.17D-01
 E= -5677.25863907209     Delta-E=       -0.000015996295 Rises=F Damp=F
 DIIS: error= 1.32D-04 at cycle   3 NSaved=   3.
 NSaved= 3 IEnMin= 3 EnMin= -5677.25863907209     IErMin= 1 ErrMin= 6.80D-05
 ErrMax= 1.32D-04  0.00D+00 EMaxC= 1.00D-01 BMatC= 4.32D-06 BMatP= 4.73D-06
 IDIUse=3 WtCom= 9.99D-01 WtEn= 1.32D-03
 Coeff-Com:  0.155D+00 0.325D+00 0.520D+00
 Coeff-En:   0.000D+00 0.313D+00 0.687D+00
 Coeff:      0.155D+00 0.325D+00 0.520D+00
 Gap=     0.047 Goal=   None    Shift=    0.000
 RMSDP=8.01D-06 MaxDP=4.35D-04 DE=-1.60D-05 OVMax= 0.00D+00

 Cycle  10  Pass 1  IDiag  1:
 RMSU=  5.64D-06    CP:  1.00D+00  5.39D-01  4.55D-01
 E= -5677.25864042060     Delta-E=       -0.000001348511 Rises=F Damp=F
 DIIS: error= 1.24D-04 at cycle   4 NSaved=   4.
 NSaved= 4 IEnMin= 4 EnMin= -5677.25864042060     IErMin= 1 ErrMin= 6.80D-05
 ErrMax= 1.24D-04  0.00D+00 EMaxC= 1.00D-01 BMatC= 3.53D-06 BMatP= 4.32D-06
 IDIUse=3 WtCom= 9.99D-01 WtEn= 1.24D-03
 EnCoef did     9 forward-backward iterations
 Coeff-Com:  0.281D-01 0.246D+00 0.484D+00 0.242D+00
 Coeff-En:   0.000D+00 0.156D+00 0.483D+00 0.362D+00
 Coeff:      0.281D-01 0.246D+00 0.484D+00 0.242D+00
 Gap=     0.047 Goal=   None    Shift=    0.000
 RMSDP=5.63D-06 MaxDP=3.66D-04 DE=-1.35D-06 OVMax= 0.00D+00

 Cycle  11  Pass 1  IDiag  1:
 RMSU=  1.75D-06    CP:  1.00D+00  5.41D-01  6.22D-01  8.62D-02
 E= -5677.25864571727     Delta-E=       -0.000005296664 Rises=F Damp=F
 DIIS: error= 3.99D-05 at cycle   5 NSaved=   5.
 NSaved= 5 IEnMin= 5 EnMin= -5677.25864571727     IErMin= 5 ErrMin= 3.99D-05
 ErrMax= 3.99D-05  0.00D+00 EMaxC= 1.00D-01 BMatC= 4.30D-07 BMatP= 3.53D-06
 IDIUse=1 WtCom= 1.00D+00 WtEn= 0.00D+00
 Coeff-Com:  0.303D-02 0.174D+00 0.357D+00 0.214D+00 0.251D+00
 Coeff:      0.303D-02 0.174D+00 0.357D+00 0.214D+00 0.251D+00
 Gap=     0.047 Goal=   None    Shift=    0.000
 RMSDP=1.74D-06 MaxDP=9.44D-05 DE=-5.30D-06 OVMax= 0.00D+00

 Cycle  12  Pass 1  IDiag  1:
 RMSU=  4.13D-07    CP:  1.00D+00  5.38D-01  6.14D-01  2.47D-01  1.85D-01
 E= -5677.25864641176     Delta-E=       -0.000000694490 Rises=F Damp=F
 DIIS: error= 6.84D-06 at cycle   6 NSaved=   6.
 NSaved= 6 IEnMin= 6 EnMin= -5677.25864641176     IErMin= 6 ErrMin= 6.84D-06
 ErrMax= 6.84D-06  0.00D+00 EMaxC= 1.00D-01 BMatC= 2.27D-08 BMatP= 4.30D-07
 IDIUse=1 WtCom= 1.00D+00 WtEn= 0.00D+00
 Coeff-Com:  0.326D-03 0.121D+00 0.250D+00 0.153D+00 0.199D+00 0.276D+00
 Coeff:      0.326D-03 0.121D+00 0.250D+00 0.153D+00 0.199D+00 0.276D+00
 Gap=     0.047 Goal=   None    Shift=    0.000
 RMSDP=4.11D-07 MaxDP=3.52D-05 DE=-6.94D-07 OVMax= 0.00D+00

 Cycle  13  Pass 1  IDiag  1:
 RMSU=  1.31D-07    CP:  1.00D+00  5.40D-01  6.12D-01  2.39D-01  2.61D-01
                    CP:  1.24D-01
 E= -5677.25864644263     Delta-E=       -0.000000030879 Rises=F Damp=F
 DIIS: error= 3.15D-06 at cycle   7 NSaved=   7.
 NSaved= 7 IEnMin= 7 EnMin= -5677.25864644263     IErMin= 7 ErrMin= 3.15D-06
 ErrMax= 3.15D-06  0.00D+00 EMaxC= 1.00D-01 BMatC= 2.70D-09 BMatP= 2.27D-08
 IDIUse=1 WtCom= 1.00D+00 WtEn= 0.00D+00
 Coeff-Com:  0.620D-04 0.900D-01 0.186D+00 0.114D+00 0.151D+00 0.233D+00
 Coeff-Com:  0.226D+00
 Coeff:      0.620D-04 0.900D-01 0.186D+00 0.114D+00 0.151D+00 0.233D+00
 Coeff:      0.226D+00
 Gap=     0.047 Goal=   None    Shift=    0.000
 RMSDP=1.36D-07 MaxDP=9.55D-06 DE=-3.09D-08 OVMax= 0.00D+00

 Cycle  14  Pass 1  IDiag  1:
 RMSU=  4.20D-08    CP:  1.00D+00  5.39D-01  6.13D-01  2.39D-01  2.51D-01
                    CP:  2.62D-01  1.28D-01
 E= -5677.25864644640     Delta-E=       -0.000000003769 Rises=F Damp=F
 DIIS: error= 1.04D-06 at cycle   8 NSaved=   8.
 NSaved= 8 IEnMin= 8 EnMin= -5677.25864644640     IErMin= 8 ErrMin= 1.04D-06
 ErrMax= 1.04D-06  0.00D+00 EMaxC= 1.00D-01 BMatC= 1.64D-10 BMatP= 2.70D-09
 IDIUse=1 WtCom= 1.00D+00 WtEn= 0.00D+00
 Coeff-Com:  0.307D-04 0.653D-01 0.135D+00 0.828D-01 0.110D+00 0.172D+00
 Coeff-Com:  0.187D+00 0.249D+00
 Coeff:      0.307D-04 0.653D-01 0.135D+00 0.828D-01 0.110D+00 0.172D+00
 Coeff:      0.187D+00 0.249D+00
 Gap=     0.047 Goal=   None    Shift=    0.000
 RMSDP=4.77D-08 MaxDP=3.61D-06 DE=-3.77D-09 OVMax= 0.00D+00

 Cycle  15  Pass 1  IDiag  1:
 RMSU=  1.79D-08    CP:  1.00D+00  5.39D-01  6.13D-01  2.39D-01  2.52D-01
                    CP:  2.61D-01  2.68D-01  5.07D-02
 E= -5677.25864644669     Delta-E=       -0.000000000284 Rises=F Damp=F
 DIIS: error= 4.62D-07 at cycle   9 NSaved=   9.
 NSaved= 9 IEnMin= 9 EnMin= -5677.25864644669     IErMin= 9 ErrMin= 4.62D-07
 ErrMax= 4.62D-07  0.00D+00 EMaxC= 1.00D-01 BMatC= 3.90D-11 BMatP= 1.64D-10
 IDIUse=1 WtCom= 1.00D+00 WtEn= 0.00D+00
 Coeff-Com:  0.563D-05 0.300D-01 0.618D-01 0.380D-01 0.506D-01 0.816D-01
 Coeff-Com:  0.982D-01 0.261D+00 0.379D+00
 Coeff:      0.563D-05 0.300D-01 0.618D-01 0.380D-01 0.506D-01 0.816D-01
 Coeff:      0.982D-01 0.261D+00 0.379D+00
 Gap=     0.047 Goal=   None    Shift=    0.000
 RMSDP=1.92D-08 MaxDP=1.54D-06 DE=-2.84D-10 OVMax= 0.00D+00

 Cycle  16  Pass 1  IDiag  1:
 RMSU=  8.76D-09    CP:  1.00D+00  5.39D-01  6.13D-01  2.39D-01  2.53D-01
                    CP:  2.63D-01  2.34D-01  2.93D-01  2.77D-01
 E= -5677.25864644674     Delta-E=       -0.000000000051 Rises=F Damp=F
 DIIS: error= 1.82D-07 at cycle  10 NSaved=  10.
 NSaved=10 IEnMin=10 EnMin= -5677.25864644674     IErMin=10 ErrMin= 1.82D-07
 ErrMax= 1.82D-07  0.00D+00 EMaxC= 1.00D-01 BMatC= 1.05D-11 BMatP= 3.90D-11
 IDIUse=1 WtCom= 1.00D+00 WtEn= 0.00D+00
 Coeff-Com:  0.239D-06 0.153D-01 0.315D-01 0.194D-01 0.259D-01 0.425D-01
 Coeff-Com:  0.547D-01 0.190D+00 0.337D+00 0.284D+00
 Coeff:      0.239D-06 0.153D-01 0.315D-01 0.194D-01 0.259D-01 0.425D-01
 Coeff:      0.547D-01 0.190D+00 0.337D+00 0.284D+00
 Gap=     0.047 Goal=   None    Shift=    0.000
 RMSDP=7.36D-09 MaxDP=7.00D-07 DE=-5.09D-11 OVMax= 0.00D+00

 SCF Done:  E(RB-LYP) =  -5677.25864645     A.U. after   16 cycles
            NFock= 16  Conv=0.74D-08     -V/T= 2.0118
 KE= 5.611289793725D+03 PE=-7.996614077438D+04 EE= 3.529058364842D+04
 Leave Link  502 at Sat Jan 28 20:53:40 2023, MaxMem=  4026531840 cpu:            9076.7 elap:             765.3
 (Enter /software/gaussian/g16-c01/avx/g16/l701.exe)
 ... and contract with generalized density number  0.
 Compute integral first derivatives.
 Leave Link  701 at Sat Jan 28 20:53:43 2023, MaxMem=  4026531840 cpu:              24.3 elap:               2.9
 (Enter /software/gaussian/g16-c01/avx/g16/l702.exe)
 L702 exits ... SP integral derivatives will be done elsewhere.
 Leave Link  702 at Sat Jan 28 20:53:43 2023, MaxMem=  4026531840 cpu:               0.8 elap:               0.1
 (Enter /software/gaussian/g16-c01/avx/g16/l703.exe)
 Integral derivatives from FoFJK, PRISM(SPDF).
 Compute integral first derivatives, UseDBF=F ICtDFT=           0.
 Calling FoFJK, ICntrl=      2527 FMM=T ISym2X=0 I1Cent= 0 IOpClX= 0 NMat=1 NMatS=1 NMatT=0.
 FoFJK:  IHMeth= 1 ICntrl=    2527 DoSepK=F KAlg= 0 I1Cent=           0 FoldK=F
 IRaf=         0 NMat=       1 IRICut=       1 DoRegI=T DoRafI=F ISym2E= 0 IDoP0=0 IntGTp=1.
 FoFCou: FMM=T IPFlag=           0 FMFlag=      100000 FMFlg1=        2001
         NFxFlg=           0 DoJE=F BraDBF=F KetDBF=F FulRan=T
         wScrn=  0.000000 ICntrl=      2527 IOpCl=  0 I1Cent=           0 NGrid=           0
         NMat0=    1 NMatS0=      1 NMatT0=    0 NMatD0=    1 NMtDS0=    0 NMtDT0=    0
 Symmetry not used in FoFCou.
 FMM levels:  10  Number of levels for PrismC:   9
