 Entering Gaussian System, Link 0=g16
 Initial command:
 /software/gaussian/g16-c01/avx2/g16/l1.exe "/gpfs/fs2/scratch/bweight/software/many_molecule_many_mode_NAMD/EXAMPLES/Fullerene/GS_OPT/Gau-27843.inp" -scrdir="/gpfs/fs2/scratch/bweight/software/many_molecule_many_mode_NAMD/EXAMPLES/Fullerene/GS_OPT/"
 Entering Link 1 = /software/gaussian/g16-c01/avx2/g16/l1.exe PID=     27844.
  
 Copyright (c) 1988-2019, Gaussian, Inc.  All Rights Reserved.
  
 This is part of the Gaussian(R) 16 program.  It is based on
 the Gaussian(R) 09 system (copyright 2009, Gaussian, Inc.),
 the Gaussian(R) 03 system (copyright 2003, Gaussian, Inc.),
 the Gaussian(R) 98 system (copyright 1998, Gaussian, Inc.),
 the Gaussian(R) 94 system (copyright 1995, Gaussian, Inc.),
 the Gaussian 92(TM) system (copyright 1992, Gaussian, Inc.),
 the Gaussian 90(TM) system (copyright 1990, Gaussian, Inc.),
 the Gaussian 88(TM) system (copyright 1988, Gaussian, Inc.),
 the Gaussian 86(TM) system (copyright 1986, Carnegie Mellon
 University), and the Gaussian 82(TM) system (copyright 1983,
 Carnegie Mellon University). Gaussian is a federally registered
 trademark of Gaussian, Inc.
  
 This software contains proprietary and confidential information,
 including trade secrets, belonging to Gaussian, Inc.
  
 This software is provided under written license and may be
 used, copied, transmitted, or stored only in accord with that
 written license.
  
 The following legend is applicable only to US Government
 contracts under FAR:
  
                    RESTRICTED RIGHTS LEGEND
  
 Use, reproduction and disclosure by the US Government is
 subject to restrictions as set forth in subparagraphs (a)
 and (c) of the Commercial Computer Software - Restricted
 Rights clause in FAR 52.227-19.
  
 Gaussian, Inc.
 340 Quinnipiac St., Bldg. 40, Wallingford CT 06492
  
  
 ---------------------------------------------------------------
 Warning -- This program may not be used in any manner that
 competes with the business of Gaussian, Inc. or will provide
 assistance to any competitor of Gaussian, Inc.  The licensee
 of this program is prohibited from giving any competitor of
 Gaussian, Inc. access to this program.  By using this program,
 the user acknowledges that Gaussian, Inc. is engaged in the
 business of creating and licensing software in the field of
 computational chemistry and represents and warrants to the
 licensee that it is not a competitor of Gaussian, Inc. and that
 it will not use this program in any manner prohibited above.
 ---------------------------------------------------------------
  

 Cite this work as:
 Gaussian 16, Revision C.01,
 M. J. Frisch, G. W. Trucks, H. B. Schlegel, G. E. Scuseria, 
 M. A. Robb, J. R. Cheeseman, G. Scalmani, V. Barone, 
 G. A. Petersson, H. Nakatsuji, X. Li, M. Caricato, A. V. Marenich, 
 J. Bloino, B. G. Janesko, R. Gomperts, B. Mennucci, H. P. Hratchian, 
 J. V. Ortiz, A. F. Izmaylov, J. L. Sonnenberg, D. Williams-Young, 
 F. Ding, F. Lipparini, F. Egidi, J. Goings, B. Peng, A. Petrone, 
 T. Henderson, D. Ranasinghe, V. G. Zakrzewski, J. Gao, N. Rega, 
 G. Zheng, W. Liang, M. Hada, M. Ehara, K. Toyota, R. Fukuda, 
 J. Hasegawa, M. Ishida, T. Nakajima, Y. Honda, O. Kitao, H. Nakai, 
 T. Vreven, K. Throssell, J. A. Montgomery, Jr., J. E. Peralta, 
 F. Ogliaro, M. J. Bearpark, J. J. Heyd, E. N. Brothers, K. N. Kudin, 
 V. N. Staroverov, T. A. Keith, R. Kobayashi, J. Normand, 
 K. Raghavachari, A. P. Rendell, J. C. Burant, S. S. Iyengar, 
 J. Tomasi, M. Cossi, J. M. Millam, M. Klene, C. Adamo, R. Cammi, 
 J. W. Ochterski, R. L. Martin, K. Morokuma, O. Farkas, 
 J. B. Foresman, and D. J. Fox, Gaussian, Inc., Wallingford CT, 2019.
 
 ******************************************
 Gaussian 16:  ES64L-G16RevC.01  3-Jul-2019
                15-Jan-2023 
 ******************************************
 %chk=geometry.chk
 %mem=30GB
 %nprocshared=24
 Will use up to   24 processors via shared memory.
 ------------------
 #P OPT BLYP/STO-3G
 ------------------
 1/18=20,19=15,26=3,38=1/1,3;
 2/9=110,12=2,17=6,18=5,40=1/2;
 3/6=3,11=2,25=1,30=1,71=1,74=402/1,2,3;
 4//1;
 5/5=2,38=5/2;
 6/7=2,8=2,9=2,10=2,28=1/1;
 7//1,2,3,16;
 1/18=20,19=15,26=3/3(2);
 2/9=110/2;
 99//99;
 2/9=110/2;
 3/6=3,11=2,25=1,30=1,71=1,74=402/1,2,3;
 4/5=5,16=3,69=1/1;
 5/5=2,38=5/2;
 7//1,2,3,16;
 1/18=20,19=15,26=3/3(-5);
 2/9=110/2;
 6/7=2,8=2,9=2,10=2,19=2,28=1/1;
 99/9=1/99;
 Leave Link    1 at Sun Jan 15 14:31:04 2023, MaxMem=  4026531840 cpu:              11.9 elap:               0.5
 (Enter /software/gaussian/g16-c01/avx2/g16/l101.exe)
 -------------------
 Title Card Required
 -------------------
 Symbolic Z-matrix:
 Charge =  0 Multiplicity = 1
 C                    -0.61213  -0.08009   0. 
 C                     0.85176  -0.08009   0. 
 C                     1.54405   1.11911   0. 
 C                     0.81207   2.38686  -0.00002 
 C                    -0.5726    2.38683   0.00001 
 C                    -1.30451   1.11904   0.00002 
 C                    -1.06451  -1.18648  -0.84514 
 C                     0.11978  -1.87023  -1.36751 
 C                     1.30414  -1.18644  -0.84519 
 C                     2.42431  -1.03374  -1.64468 
 C                     2.7283    1.28053  -0.84525 
 C                     1.54395   3.33179  -0.84527 
 C                     0.85155   4.22557  -1.6447 
 C                    -0.61234   4.22554  -1.64465 
 C                    -1.30461   3.33174  -0.84515 
 C                    -2.48893   2.64793  -1.36745 
 C                    -2.48887   1.28042  -0.8451 
 C                    -2.91677   0.23392  -1.64451 
 C                    -2.18478  -1.03384  -1.64453 
 C                     0.11973  -2.36433  -2.66102 
 C                    -1.0646   -2.20297  -3.50614 
 C                    -2.18481  -1.55621  -3.01204 
 C                    -2.91683  -0.6113   -3.8572 
 C                    -3.3692    0.49505  -3.01201 
 C                    -3.36925   1.78857  -3.50611 
 C                    -2.91688   2.89495  -2.66096 
 C                    -2.185     3.83991  -3.50619 
 C                    -1.06477   4.48671  -3.01217 
 C                     2.72824   2.64806  -1.36764 
 C                     1.30381   3.47025  -5.67326 
 C                     2.42408   3.31763  -4.87389 
 C                     3.15605   2.04988  -4.87388 
 C                     2.72815   1.00338  -5.67331 
 C                     1.54382   1.16476  -6.51844 
 C                    -0.61246   2.36386  -6.51837 
 C                    -1.06483   3.47022  -5.67319 
 C                     0.11948   4.15402  -5.15089 
 C                     0.11951   4.64812  -3.85738 
 C                     1.30387   4.48673  -3.01221 
 C                     2.4241    3.83999  -3.50633 
 C                     3.60845   1.78873  -3.50637 
 C                     3.6085    0.49524  -3.01226 
 C                     3.15611  -0.61117  -3.8574 
 C                     2.72818  -0.36414  -5.15092 
 C                     1.5439   -1.04794  -5.67323 
 C                     0.8119   -0.10304  -6.51838 
 C                    -0.57277  -0.10306  -6.51833 
 C                    -1.30476   1.16469  -6.51833 
 C                    -2.18503   3.31753  -4.8737 
 C                    -2.91693   2.04974  -4.87366 
 C                    -2.48905   1.00326  -5.6731 
 C                    -2.48899  -0.36427  -5.15074 
 C                    -1.30467  -1.04801  -5.67313 
 C                    -0.61228  -1.94179  -4.87372 
 C                     0.85161  -1.94176  -4.87375 
 C                     1.30403  -2.20289  -3.50627 
 C                     2.42425  -1.5561   -3.01222 
 C                     3.15607   2.89511  -2.66118 
 C                     3.15619   0.23407  -1.6447 
 C                     0.85144   2.3639   -6.5184 
 
 ITRead=  0  0  0  0  0  0  0  0  0  0  0  0  0  0  0  0  0  0  0  0
 ITRead=  0  0  0  0  0  0  0  0  0  0  0  0  0  0  0  0  0  0  0  0
 ITRead=  0  0  0  0  0  0  0  0  0  0  0  0  0  0  0  0  0  0  0  0
 MicOpt= -1 -1 -1 -1 -1 -1 -1 -1 -1 -1 -1 -1 -1 -1 -1 -1 -1 -1 -1 -1
 MicOpt= -1 -1 -1 -1 -1 -1 -1 -1 -1 -1 -1 -1 -1 -1 -1 -1 -1 -1 -1 -1
 MicOpt= -1 -1 -1 -1 -1 -1 -1 -1 -1 -1 -1 -1 -1 -1 -1 -1 -1 -1 -1 -1
 NAtoms=     60 NQM=       60 NQMF=       0 NMMI=      0 NMMIF=      0
                NMic=       0 NMicF=      0.
                    Isotopes and Nuclear Properties:
 (Nuclear quadrupole moments (NQMom) in fm**2, nuclear magnetic moments (NMagM)
  in nuclear magnetons)

  Atom         1           2           3           4           5           6           7           8           9          10
 IAtWgt=          12          12          12          12          12          12          12          12          12          12
 AtmWgt=  12.0000000  12.0000000  12.0000000  12.0000000  12.0000000  12.0000000  12.0000000  12.0000000  12.0000000  12.0000000
 NucSpn=           0           0           0           0           0           0           0           0           0           0
 AtZEff=  -0.0000000  -0.0000000  -0.0000000  -0.0000000  -0.0000000  -0.0000000  -0.0000000  -0.0000000  -0.0000000  -0.0000000
 NQMom=    0.0000000   0.0000000   0.0000000   0.0000000   0.0000000   0.0000000   0.0000000   0.0000000   0.0000000   0.0000000
 NMagM=    0.0000000   0.0000000   0.0000000   0.0000000   0.0000000   0.0000000   0.0000000   0.0000000   0.0000000   0.0000000
 AtZNuc=   6.0000000   6.0000000   6.0000000   6.0000000   6.0000000   6.0000000   6.0000000   6.0000000   6.0000000   6.0000000

  Atom        11          12          13          14          15          16          17          18          19          20
 IAtWgt=          12          12          12          12          12          12          12          12          12          12
 AtmWgt=  12.0000000  12.0000000  12.0000000  12.0000000  12.0000000  12.0000000  12.0000000  12.0000000  12.0000000  12.0000000
 NucSpn=           0           0           0           0           0           0           0           0           0           0
 AtZEff=  -0.0000000  -0.0000000  -0.0000000  -0.0000000  -0.0000000  -0.0000000  -0.0000000  -0.0000000  -0.0000000  -0.0000000
 NQMom=    0.0000000   0.0000000   0.0000000   0.0000000   0.0000000   0.0000000   0.0000000   0.0000000   0.0000000   0.0000000
 NMagM=    0.0000000   0.0000000   0.0000000   0.0000000   0.0000000   0.0000000   0.0000000   0.0000000   0.0000000   0.0000000
 AtZNuc=   6.0000000   6.0000000   6.0000000   6.0000000   6.0000000   6.0000000   6.0000000   6.0000000   6.0000000   6.0000000

  Atom        21          22          23          24          25          26          27          28          29          30
 IAtWgt=          12          12          12          12          12          12          12          12          12          12
 AtmWgt=  12.0000000  12.0000000  12.0000000  12.0000000  12.0000000  12.0000000  12.0000000  12.0000000  12.0000000  12.0000000
 NucSpn=           0           0           0           0           0           0           0           0           0           0
 AtZEff=  -0.0000000  -0.0000000  -0.0000000  -0.0000000  -0.0000000  -0.0000000  -0.0000000  -0.0000000  -0.0000000  -0.0000000
 NQMom=    0.0000000   0.0000000   0.0000000   0.0000000   0.0000000   0.0000000   0.0000000   0.0000000   0.0000000   0.0000000
 NMagM=    0.0000000   0.0000000   0.0000000   0.0000000   0.0000000   0.0000000   0.0000000   0.0000000   0.0000000   0.0000000
 AtZNuc=   6.0000000   6.0000000   6.0000000   6.0000000   6.0000000   6.0000000   6.0000000   6.0000000   6.0000000   6.0000000

  Atom        31          32          33          34          35          36          37          38          39          40
 IAtWgt=          12          12          12          12          12          12          12          12          12          12
 AtmWgt=  12.0000000  12.0000000  12.0000000  12.0000000  12.0000000  12.0000000  12.0000000  12.0000000  12.0000000  12.0000000
 NucSpn=           0           0           0           0           0           0           0           0           0           0
 AtZEff=  -0.0000000  -0.0000000  -0.0000000  -0.0000000  -0.0000000  -0.0000000  -0.0000000  -0.0000000  -0.0000000  -0.0000000
 NQMom=    0.0000000   0.0000000   0.0000000   0.0000000   0.0000000   0.0000000   0.0000000   0.0000000   0.0000000   0.0000000
 NMagM=    0.0000000   0.0000000   0.0000000   0.0000000   0.0000000   0.0000000   0.0000000   0.0000000   0.0000000   0.0000000
 AtZNuc=   6.0000000   6.0000000   6.0000000   6.0000000   6.0000000   6.0000000   6.0000000   6.0000000   6.0000000   6.0000000

  Atom        41          42          43          44          45          46          47          48          49          50
 IAtWgt=          12          12          12          12          12          12          12          12          12          12
 AtmWgt=  12.0000000  12.0000000  12.0000000  12.0000000  12.0000000  12.0000000  12.0000000  12.0000000  12.0000000  12.0000000
 NucSpn=           0           0           0           0           0           0           0           0           0           0
 AtZEff=  -0.0000000  -0.0000000  -0.0000000  -0.0000000  -0.0000000  -0.0000000  -0.0000000  -0.0000000  -0.0000000  -0.0000000
 NQMom=    0.0000000   0.0000000   0.0000000   0.0000000   0.0000000   0.0000000   0.0000000   0.0000000   0.0000000   0.0000000
 NMagM=    0.0000000   0.0000000   0.0000000   0.0000000   0.0000000   0.0000000   0.0000000   0.0000000   0.0000000   0.0000000
 AtZNuc=   6.0000000   6.0000000   6.0000000   6.0000000   6.0000000   6.0000000   6.0000000   6.0000000   6.0000000   6.0000000

  Atom        51          52          53          54          55          56          57          58          59          60
 IAtWgt=          12          12          12          12          12          12          12          12          12          12
 AtmWgt=  12.0000000  12.0000000  12.0000000  12.0000000  12.0000000  12.0000000  12.0000000  12.0000000  12.0000000  12.0000000
 NucSpn=           0           0           0           0           0           0           0           0           0           0
 AtZEff=  -0.0000000  -0.0000000  -0.0000000  -0.0000000  -0.0000000  -0.0000000  -0.0000000  -0.0000000  -0.0000000  -0.0000000
 NQMom=    0.0000000   0.0000000   0.0000000   0.0000000   0.0000000   0.0000000   0.0000000   0.0000000   0.0000000   0.0000000
 NMagM=    0.0000000   0.0000000   0.0000000   0.0000000   0.0000000   0.0000000   0.0000000   0.0000000   0.0000000   0.0000000
 AtZNuc=   6.0000000   6.0000000   6.0000000   6.0000000   6.0000000   6.0000000   6.0000000   6.0000000   6.0000000   6.0000000
 Leave Link  101 at Sun Jan 15 14:31:04 2023, MaxMem=  4026531840 cpu:               9.0 elap:               0.4
 (Enter /software/gaussian/g16-c01/avx2/g16/l103.exe)

 GradGradGradGradGradGradGradGradGradGradGradGradGradGradGradGradGradGrad
 Berny optimization.
 Initialization pass.
                           ----------------------------
                           !    Initial Parameters    !
                           ! (Angstroms and Degrees)  !
 --------------------------                            --------------------------
 ! Name  Definition              Value          Derivative Info.                !
 --------------------------------------------------------------------------------
 ! R1    R(1,2)                  1.4639         estimate D2E/DX2                !
 ! R2    R(1,6)                  1.3847         estimate D2E/DX2                !
 ! R3    R(1,7)                  1.4639         estimate D2E/DX2                !
 ! R4    R(2,3)                  1.3847         estimate D2E/DX2                !
 ! R5    R(2,9)                  1.4639         estimate D2E/DX2                !
 ! R6    R(3,4)                  1.4639         estimate D2E/DX2                !
 ! R7    R(3,11)                 1.4639         estimate D2E/DX2                !
 ! R8    R(4,5)                  1.3847         estimate D2E/DX2                !
 ! R9    R(4,12)                 1.4639         estimate D2E/DX2                !
 ! R10   R(5,6)                  1.4639         estimate D2E/DX2                !
 ! R11   R(5,15)                 1.4639         estimate D2E/DX2                !
 ! R12   R(6,17)                 1.4639         estimate D2E/DX2                !
 ! R13   R(7,8)                  1.4639         estimate D2E/DX2                !
 ! R14   R(7,19)                 1.3847         estimate D2E/DX2                !
 ! R15   R(8,9)                  1.4639         estimate D2E/DX2                !
 ! R16   R(8,20)                 1.3847         estimate D2E/DX2                !
 ! R17   R(9,10)                 1.3847         estimate D2E/DX2                !
 ! R18   R(10,57)                1.4639         estimate D2E/DX2                !
 ! R19   R(10,59)                1.4639         estimate D2E/DX2                !
 ! R20   R(11,29)                1.4639         estimate D2E/DX2                !
 ! R21   R(11,59)                1.3847         estimate D2E/DX2                !
 ! R22   R(12,13)                1.3847         estimate D2E/DX2                !
 ! R23   R(12,29)                1.4639         estimate D2E/DX2                !
 ! R24   R(13,14)                1.4639         estimate D2E/DX2                !
 ! R25   R(13,39)                1.4639         estimate D2E/DX2                !
 ! R26   R(14,15)                1.3847         estimate D2E/DX2                !
 ! R27   R(14,28)                1.4639         estimate D2E/DX2                !
 ! R28   R(15,16)                1.4639         estimate D2E/DX2                !
 ! R29   R(16,17)                1.4639         estimate D2E/DX2                !
 ! R30   R(16,26)                1.3847         estimate D2E/DX2                !
 ! R31   R(17,18)                1.3847         estimate D2E/DX2                !
 ! R32   R(18,19)                1.4639         estimate D2E/DX2                !
 ! R33   R(18,24)                1.4639         estimate D2E/DX2                !
 ! R34   R(19,22)                1.4639         estimate D2E/DX2                !
 ! R35   R(20,21)                1.4639         estimate D2E/DX2                !
 ! R36   R(20,56)                1.4639         estimate D2E/DX2                !
 ! R37   R(21,22)                1.3847         estimate D2E/DX2                !
 ! R38   R(21,54)                1.4639         estimate D2E/DX2                !
 ! R39   R(22,23)                1.4639         estimate D2E/DX2                !
 ! R40   R(23,24)                1.4639         estimate D2E/DX2                !
 ! R41   R(23,52)                1.3847         estimate D2E/DX2                !
 ! R42   R(24,25)                1.3847         estimate D2E/DX2                !
 ! R43   R(25,26)                1.4639         estimate D2E/DX2                !
 ! R44   R(25,50)                1.4639         estimate D2E/DX2                !
 ! R45   R(26,27)                1.4639         estimate D2E/DX2                !
 ! R46   R(27,28)                1.3847         estimate D2E/DX2                !
 ! R47   R(27,49)                1.4639         estimate D2E/DX2                !
 ! R48   R(28,38)                1.4639         estimate D2E/DX2                !
 ! R49   R(29,58)                1.3847         estimate D2E/DX2                !
 ! R50   R(30,31)                1.3847         estimate D2E/DX2                !
 ! R51   R(30,37)                1.4639         estimate D2E/DX2                !
 ! R52   R(30,60)                1.4639         estimate D2E/DX2                !
 ! R53   R(31,32)                1.4639         estimate D2E/DX2                !
 ! R54   R(31,40)                1.4639         estimate D2E/DX2                !
 ! R55   R(32,33)                1.3847         estimate D2E/DX2                !
 ! R56   R(32,41)                1.4639         estimate D2E/DX2                !
 ! R57   R(33,34)                1.4639         estimate D2E/DX2                !
 ! R58   R(33,44)                1.4639         estimate D2E/DX2                !
 ! R59   R(34,46)                1.4639         estimate D2E/DX2                !
 ! R60   R(34,60)                1.3847         estimate D2E/DX2                !
 ! R61   R(35,36)                1.4639         estimate D2E/DX2                !
 ! R62   R(35,48)                1.3847         estimate D2E/DX2                !
 ! R63   R(35,60)                1.4639         estimate D2E/DX2                !
 ! R64   R(36,37)                1.4639         estimate D2E/DX2                !
 ! R65   R(36,49)                1.3847         estimate D2E/DX2                !
 ! R66   R(37,38)                1.3847         estimate D2E/DX2                !
 ! R67   R(38,39)                1.4639         estimate D2E/DX2                !
 ! R68   R(39,40)                1.3847         estimate D2E/DX2                !
 ! R69   R(40,58)                1.4639         estimate D2E/DX2                !
 ! R70   R(41,42)                1.3847         estimate D2E/DX2                !
 ! R71   R(41,58)                1.4639         estimate D2E/DX2                !
 ! R72   R(42,43)                1.4639         estimate D2E/DX2                !
 ! R73   R(42,59)                1.4639         estimate D2E/DX2                !
 ! R74   R(43,44)                1.3847         estimate D2E/DX2                !
 ! R75   R(43,57)                1.4638         estimate D2E/DX2                !
 ! R76   R(44,45)                1.4639         estimate D2E/DX2                !
 ! R77   R(45,46)                1.4639         estimate D2E/DX2                !
 ! R78   R(45,55)                1.3847         estimate D2E/DX2                !
 ! R79   R(46,47)                1.3847         estimate D2E/DX2                !
 ! R80   R(47,48)                1.4639         estimate D2E/DX2                !
 ! R81   R(47,53)                1.4639         estimate D2E/DX2                !
 ! R82   R(48,51)                1.4639         estimate D2E/DX2                !
 ! R83   R(49,50)                1.4639         estimate D2E/DX2                !
 ! R84   R(50,51)                1.3847         estimate D2E/DX2                !
 ! R85   R(51,52)                1.4639         estimate D2E/DX2                !
 ! R86   R(52,53)                1.4639         estimate D2E/DX2                !
 ! R87   R(53,54)                1.3847         estimate D2E/DX2                !
 ! R88   R(54,55)                1.4639         estimate D2E/DX2                !
 ! R89   R(55,56)                1.4639         estimate D2E/DX2                !
 ! R90   R(56,57)                1.3847         estimate D2E/DX2                !
 ! A1    A(2,1,6)              120.0022         estimate D2E/DX2                !
 ! A2    A(2,1,7)              108.0004         estimate D2E/DX2                !
 ! A3    A(6,1,7)              119.9998         estimate D2E/DX2                !
 ! A4    A(1,2,3)              119.9976         estimate D2E/DX2                !
 ! A5    A(1,2,9)              108.0004         estimate D2E/DX2                !
 ! A6    A(3,2,9)              120.0013         estimate D2E/DX2                !
 ! A7    A(2,3,4)              120.001          estimate D2E/DX2                !
 ! A8    A(2,3,11)             119.9973         estimate D2E/DX2                !
 ! A9    A(4,3,11)             107.9992         estimate D2E/DX2                !
 ! A10   A(3,4,5)              120.0001         estimate D2E/DX2                !
 ! A11   A(3,4,12)             108.0001         estimate D2E/DX2                !
 ! A12   A(5,4,12)             119.9989         estimate D2E/DX2                !
 ! A13   A(4,5,6)              119.9994         estimate D2E/DX2                !
 ! A14   A(4,5,15)             120.0012         estimate D2E/DX2                !
 ! A15   A(6,5,15)             107.9995         estimate D2E/DX2                !
 ! A16   A(1,6,5)              119.9997         estimate D2E/DX2                !
 ! A17   A(1,6,17)             120.0006         estimate D2E/DX2                !
 ! A18   A(5,6,17)             108.0004         estimate D2E/DX2                !
 ! A19   A(1,7,8)              108.0003         estimate D2E/DX2                !
 ! A20   A(1,7,19)             120.0            estimate D2E/DX2                !
 ! A21   A(8,7,19)             120.0005         estimate D2E/DX2                !
 ! A22   A(7,8,9)              108.0001         estimate D2E/DX2                !
 ! A23   A(7,8,20)             119.9996         estimate D2E/DX2                !
 ! A24   A(9,8,20)             120.0009         estimate D2E/DX2                !
 ! A25   A(2,9,8)              107.9988         estimate D2E/DX2                !
 ! A26   A(2,9,10)             120.0007         estimate D2E/DX2                !
 ! A27   A(8,9,10)             119.9994         estimate D2E/DX2                !
 ! A28   A(9,10,57)            119.9999         estimate D2E/DX2                !
 ! A29   A(9,10,59)            119.9983         estimate D2E/DX2                !
 ! A30   A(57,10,59)           108.001          estimate D2E/DX2                !
 ! A31   A(3,11,29)            108.0001         estimate D2E/DX2                !
 ! A32   A(3,11,59)            120.0013         estimate D2E/DX2                !
 ! A33   A(29,11,59)           119.999          estimate D2E/DX2                !
 ! A34   A(4,12,13)            119.9999         estimate D2E/DX2                !
 ! A35   A(4,12,29)            108.0007         estimate D2E/DX2                !
 ! A36   A(13,12,29)           120.0001         estimate D2E/DX2                !
 ! A37   A(12,13,14)           120.0007         estimate D2E/DX2                !
 ! A38   A(12,13,39)           119.9992         estimate D2E/DX2                !
 ! A39   A(14,13,39)           108.0007         estimate D2E/DX2                !
 ! A40   A(13,14,15)           119.9988         estimate D2E/DX2                !
 ! A41   A(13,14,28)           108.0001         estimate D2E/DX2                !
 ! A42   A(15,14,28)           120.0015         estimate D2E/DX2                !
 ! A43   A(5,15,14)            120.0005         estimate D2E/DX2                !
 ! A44   A(5,15,16)            108.0001         estimate D2E/DX2                !
 ! A45   A(14,15,16)           119.999          estimate D2E/DX2                !
 ! A46   A(15,16,17)           108.0001         estimate D2E/DX2                !
 ! A47   A(15,16,26)           120.0004         estimate D2E/DX2                !
 ! A48   A(17,16,26)           119.9996         estimate D2E/DX2                !
 ! A49   A(6,17,16)            107.9999         estimate D2E/DX2                !
 ! A50   A(6,17,18)            120.0001         estimate D2E/DX2                !
 ! A51   A(16,17,18)           120.0004         estimate D2E/DX2                !
 ! A52   A(17,18,19)           119.9995         estimate D2E/DX2                !
 ! A53   A(17,18,24)           120.0003         estimate D2E/DX2                !
 ! A54   A(19,18,24)           107.9995         estimate D2E/DX2                !
 ! A55   A(7,19,18)            120.0            estimate D2E/DX2                !
 ! A56   A(7,19,22)            119.9994         estimate D2E/DX2                !
 ! A57   A(18,19,22)           108.0004         estimate D2E/DX2                !
 ! A58   A(8,20,21)            120.0007         estimate D2E/DX2                !
 ! A59   A(8,20,56)            119.9993         estimate D2E/DX2                !
 ! A60   A(21,20,56)           107.9998         estimate D2E/DX2                !
 ! A61   A(20,21,22)           119.9998         estimate D2E/DX2                !
 ! A62   A(20,21,54)           108.0            estimate D2E/DX2                !
 ! A63   A(22,21,54)           119.9994         estimate D2E/DX2                !
 ! A64   A(19,22,21)           120.0001         estimate D2E/DX2                !
 ! A65   A(19,22,23)           108.0            estimate D2E/DX2                !
 ! A66   A(21,22,23)           120.0008         estimate D2E/DX2                !
 ! A67   A(22,23,24)           107.9997         estimate D2E/DX2                !
 ! A68   A(22,23,52)           119.9996         estimate D2E/DX2                !
 ! A69   A(24,23,52)           120.0005         estimate D2E/DX2                !
 ! A70   A(18,24,23)           108.0004         estimate D2E/DX2                !
 ! A71   A(18,24,25)           119.9997         estimate D2E/DX2                !
 ! A72   A(23,24,25)           119.9996         estimate D2E/DX2                !
 ! A73   A(24,25,26)           119.9999         estimate D2E/DX2                !
 ! A74   A(24,25,50)           119.9998         estimate D2E/DX2                !
 ! A75   A(26,25,50)           108.0002         estimate D2E/DX2                !
 ! A76   A(16,26,25)           120.0001         estimate D2E/DX2                !
 ! A77   A(16,26,27)           120.0001         estimate D2E/DX2                !
 ! A78   A(25,26,27)           107.9997         estimate D2E/DX2                !
 ! A79   A(26,27,28)           120.0001         estimate D2E/DX2                !
 ! A80   A(26,27,49)           107.9998         estimate D2E/DX2                !
 ! A81   A(28,27,49)           119.9996         estimate D2E/DX2                !
 ! A82   A(14,28,27)           119.9989         estimate D2E/DX2                !
 ! A83   A(14,28,38)           107.9991         estimate D2E/DX2                !
 ! A84   A(27,28,38)           120.0008         estimate D2E/DX2                !
 ! A85   A(11,29,12)           107.9999         estimate D2E/DX2                !
 ! A86   A(11,29,58)           120.0008         estimate D2E/DX2                !
 ! A87   A(12,29,58)           119.9996         estimate D2E/DX2                !
 ! A88   A(31,30,37)           120.0014         estimate D2E/DX2                !
 ! A89   A(31,30,60)           120.0007         estimate D2E/DX2                !
 ! A90   A(37,30,60)           108.0002         estimate D2E/DX2                !
 ! A91   A(30,31,32)           120.0            estimate D2E/DX2                !
 ! A92   A(30,31,40)           119.9988         estimate D2E/DX2                !
 ! A93   A(32,31,40)           107.9992         estimate D2E/DX2                !
 ! A94   A(31,32,33)           119.999          estimate D2E/DX2                !
 ! A95   A(31,32,41)           108.0003         estimate D2E/DX2                !
 ! A96   A(33,32,41)           120.0003         estimate D2E/DX2                !
 ! A97   A(32,33,34)           120.0006         estimate D2E/DX2                !
 ! A98   A(32,33,44)           119.999          estimate D2E/DX2                !
 ! A99   A(34,33,44)           107.9999         estimate D2E/DX2                !
 ! A100  A(33,34,46)           107.9994         estimate D2E/DX2                !
 ! A101  A(33,34,60)           119.9998         estimate D2E/DX2                !
 ! A102  A(46,34,60)           119.9996         estimate D2E/DX2                !
 ! A103  A(36,35,48)           120.0001         estimate D2E/DX2                !
 ! A104  A(36,35,60)           107.9995         estimate D2E/DX2                !
 ! A105  A(48,35,60)           119.9999         estimate D2E/DX2                !
 ! A106  A(35,36,37)           108.0002         estimate D2E/DX2                !
 ! A107  A(35,36,49)           120.0002         estimate D2E/DX2                !
 ! A108  A(37,36,49)           119.9999         estimate D2E/DX2                !
 ! A109  A(30,37,36)           107.9996         estimate D2E/DX2                !
 ! A110  A(30,37,38)           119.9994         estimate D2E/DX2                !
 ! A111  A(36,37,38)           120.0004         estimate D2E/DX2                !
 ! A112  A(28,38,37)           119.9996         estimate D2E/DX2                !
 ! A113  A(28,38,39)           108.0001         estimate D2E/DX2                !
 ! A114  A(37,38,39)           120.0003         estimate D2E/DX2                !
 ! A115  A(13,39,38)           107.9999         estimate D2E/DX2                !
 ! A116  A(13,39,40)           120.0007         estimate D2E/DX2                !
 ! A117  A(38,39,40)           119.9999         estimate D2E/DX2                !
 ! A118  A(31,40,39)           120.0003         estimate D2E/DX2                !
 ! A119  A(31,40,58)           108.0003         estimate D2E/DX2                !
 ! A120  A(39,40,58)           119.9998         estimate D2E/DX2                !
 ! A121  A(32,41,42)           120.0013         estimate D2E/DX2                !
 ! A122  A(32,41,58)           107.9999         estimate D2E/DX2                !
 ! A123  A(42,41,58)           119.9998         estimate D2E/DX2                !
 ! A124  A(41,42,43)           119.9999         estimate D2E/DX2                !
 ! A125  A(41,42,59)           120.0006         estimate D2E/DX2                !
 ! A126  A(43,42,59)           107.999          estimate D2E/DX2                !
 ! A127  A(42,43,44)           119.9989         estimate D2E/DX2                !
 ! A128  A(42,43,57)           108.0017         estimate D2E/DX2                !
 ! A129  A(44,43,57)           120.0004         estimate D2E/DX2                !
 ! A130  A(33,44,43)           120.0006         estimate D2E/DX2                !
 ! A131  A(33,44,45)           108.0004         estimate D2E/DX2                !
 ! A132  A(43,44,45)           119.9999         estimate D2E/DX2                !
 ! A133  A(44,45,46)           108.0002         estimate D2E/DX2                !
 ! A134  A(44,45,55)           119.9993         estimate D2E/DX2                !
 ! A135  A(46,45,55)           120.0            estimate D2E/DX2                !
 ! A136  A(34,46,45)           108.0            estimate D2E/DX2                !
 ! A137  A(34,46,47)           119.9992         estimate D2E/DX2                !
 ! A138  A(45,46,47)           120.0007         estimate D2E/DX2                !
 ! A139  A(46,47,48)           120.0011         estimate D2E/DX2                !
 ! A140  A(46,47,53)           119.9997         estimate D2E/DX2                !
 ! A141  A(48,47,53)           108.0004         estimate D2E/DX2                !
 ! A142  A(35,48,47)           119.9999         estimate D2E/DX2                !
 ! A143  A(35,48,51)           119.9998         estimate D2E/DX2                !
 ! A144  A(47,48,51)           108.0            estimate D2E/DX2                !
 ! A145  A(27,49,36)           119.9997         estimate D2E/DX2                !
 ! A146  A(27,49,50)           108.0004         estimate D2E/DX2                !
 ! A147  A(36,49,50)           119.9995         estimate D2E/DX2                !
 ! A148  A(25,50,49)           108.0            estimate D2E/DX2                !
 ! A149  A(25,50,51)           120.0003         estimate D2E/DX2                !
 ! A150  A(49,50,51)           120.0002         estimate D2E/DX2                !
 ! A151  A(48,51,50)           120.0003         estimate D2E/DX2                !
 ! A152  A(48,51,52)           107.9997         estimate D2E/DX2                !
 ! A153  A(50,51,52)           120.0            estimate D2E/DX2                !
 ! A154  A(23,52,51)           119.9997         estimate D2E/DX2                !
 ! A155  A(23,52,53)           120.0001         estimate D2E/DX2                !
 ! A156  A(51,52,53)           108.0            estimate D2E/DX2                !
 ! A157  A(47,53,52)           107.9998         estimate D2E/DX2                !
 ! A158  A(47,53,54)           119.9997         estimate D2E/DX2                !
 ! A159  A(52,53,54)           120.0005         estimate D2E/DX2                !
 ! A160  A(21,54,53)           119.9995         estimate D2E/DX2                !
 ! A161  A(21,54,55)           107.9992         estimate D2E/DX2                !
 ! A162  A(53,54,55)           120.001          estimate D2E/DX2                !
 ! A163  A(45,55,54)           119.9988         estimate D2E/DX2                !
 ! A164  A(45,55,56)           119.9999         estimate D2E/DX2                !
 ! A165  A(54,55,56)           108.001          estimate D2E/DX2                !
 ! A166  A(20,56,55)           108.0001         estimate D2E/DX2                !
 ! A167  A(20,56,57)           119.9995         estimate D2E/DX2                !
 ! A168  A(55,56,57)           120.0005         estimate D2E/DX2                !
 ! A169  A(10,57,43)           107.9994         estimate D2E/DX2                !
 ! A170  A(10,57,56)           120.001          estimate D2E/DX2                !
 ! A171  A(43,57,56)           120.0            estimate D2E/DX2                !
 ! A172  A(29,58,40)           120.0006         estimate D2E/DX2                !
 ! A173  A(29,58,41)           119.9992         estimate D2E/DX2                !
 ! A174  A(40,58,41)           108.0003         estimate D2E/DX2                !
 ! A175  A(10,59,11)           120.0012         estimate D2E/DX2                !
 ! A176  A(10,59,42)           107.9988         estimate D2E/DX2                !
 ! A177  A(11,59,42)           120.0007         estimate D2E/DX2                !
 ! A178  A(30,60,34)           120.0            estimate D2E/DX2                !
 ! A179  A(30,60,35)           108.0006         estimate D2E/DX2                !
 ! A180  A(34,60,35)           120.0003         estimate D2E/DX2                !
 ! D1    D(6,1,2,3)             -0.001          estimate D2E/DX2                !
 ! D2    D(6,1,2,9)           -142.6232         estimate D2E/DX2                !
 ! D3    D(7,1,2,3)            142.6246         estimate D2E/DX2                !
 ! D4    D(7,1,2,9)              0.0024         estimate D2E/DX2                !
 ! D5    D(2,1,6,5)              0.0017         estimate D2E/DX2                !
 ! D6    D(2,1,6,17)           138.1927         estimate D2E/DX2                !
 ! D7    D(7,1,6,5)           -138.1917         estimate D2E/DX2                !
 ! D8    D(7,1,6,17)            -0.0007         estimate D2E/DX2                !
 ! D9    D(2,1,7,8)             -0.0022         estimate D2E/DX2                !
 ! D10   D(2,1,7,19)          -142.6262         estimate D2E/DX2                !
 ! D11   D(6,1,7,8)            142.6245         estimate D2E/DX2                !
 ! D12   D(6,1,7,19)             0.0005         estimate D2E/DX2                !
 ! D13   D(1,2,3,4)             -0.0009         estimate D2E/DX2                !
 ! D14   D(1,2,3,11)          -138.1866         estimate D2E/DX2                !
 ! D15   D(9,2,3,4)            138.1877         estimate D2E/DX2                !
 ! D16   D(9,2,3,11)             0.002          estimate D2E/DX2                !
 ! D17   D(1,2,9,8)             -0.0018         estimate D2E/DX2                !
 ! D18   D(1,2,9,10)           142.619          estimate D2E/DX2                !
 ! D19   D(3,2,9,8)           -142.6223         estimate D2E/DX2                !
 ! D20   D(3,2,9,10)            -0.0015         estimate D2E/DX2                !
 ! D21   D(2,3,4,5)              0.002          estimate D2E/DX2                !
 ! D22   D(2,3,4,12)          -142.619          estimate D2E/DX2                !
 ! D23   D(11,3,4,5)           142.6202         estimate D2E/DX2                !
 ! D24   D(11,3,4,12)           -0.0008         estimate D2E/DX2                !
 ! D25   D(2,3,11,29)          142.6211         estimate D2E/DX2                !
 ! D26   D(2,3,11,59)           -0.0015         estimate D2E/DX2                !
 ! D27   D(4,3,11,29)            0.0012         estimate D2E/DX2                !
 ! D28   D(4,3,11,59)         -142.6214         estimate D2E/DX2                !
 ! D29   D(3,4,5,6)             -0.0013         estimate D2E/DX2                !
 ! D30   D(3,4,5,15)          -138.1909         estimate D2E/DX2                !
 ! D31   D(12,4,5,6)           138.187          estimate D2E/DX2                !
 ! D32   D(12,4,5,15)           -0.0026         estimate D2E/DX2                !
 ! D33   D(3,4,12,13)          142.6237         estimate D2E/DX2                !
 ! D34   D(3,4,12,29)            0.0            estimate D2E/DX2                !
 ! D35   D(5,4,12,13)            0.0022         estimate D2E/DX2                !
 ! D36   D(5,4,12,29)         -142.6215         estimate D2E/DX2                !
 ! D37   D(4,5,6,1)             -0.0006         estimate D2E/DX2                !
 ! D38   D(4,5,6,17)          -142.6245         estimate D2E/DX2                !
 ! D39   D(15,5,6,1)           142.6226         estimate D2E/DX2                !
 ! D40   D(15,5,6,17)           -0.0012         estimate D2E/DX2                !
 ! D41   D(4,5,15,14)            0.0017         estimate D2E/DX2                !
 ! D42   D(4,5,15,16)          142.6234         estimate D2E/DX2                !
 ! D43   D(6,5,15,14)         -142.6208         estimate D2E/DX2                !
 ! D44   D(6,5,15,16)            0.0009         estimate D2E/DX2                !
 ! D45   D(1,6,17,16)         -142.6224         estimate D2E/DX2                !
 ! D46   D(1,6,17,18)            0.0008         estimate D2E/DX2                !
 ! D47   D(5,6,17,16)            0.0011         estimate D2E/DX2                !
 ! D48   D(5,6,17,18)          142.6243         estimate D2E/DX2                !
 ! D49   D(1,7,8,9)              0.0011         estimate D2E/DX2                !
 ! D50   D(1,7,8,20)          -142.6227         estimate D2E/DX2                !
 ! D51   D(19,7,8,9)           142.6249         estimate D2E/DX2                !
 ! D52   D(19,7,8,20)            0.0011         estimate D2E/DX2                !
 ! D53   D(1,7,19,18)           -0.0002         estimate D2E/DX2                !
 ! D54   D(1,7,19,22)          138.1894         estimate D2E/DX2                !
 ! D55   D(8,7,19,18)         -138.1914         estimate D2E/DX2                !
 ! D56   D(8,7,19,22)           -0.0018         estimate D2E/DX2                !
 ! D57   D(7,8,9,2)              0.0004         estimate D2E/DX2                !
 ! D58   D(7,8,9,10)          -142.621          estimate D2E/DX2                !
 ! D59   D(20,8,9,2)           142.6236         estimate D2E/DX2                !
 ! D60   D(20,8,9,10)            0.0022         estimate D2E/DX2                !
 ! D61   D(7,8,20,21)           -0.0004         estimate D2E/DX2                !
 ! D62   D(7,8,20,56)          138.1888         estimate D2E/DX2                !
 ! D63   D(9,8,20,21)         -138.1909         estimate D2E/DX2                !
 ! D64   D(9,8,20,56)           -0.0018         estimate D2E/DX2                !
 ! D65   D(2,9,10,57)         -138.1886         estimate D2E/DX2                !
 ! D66   D(2,9,10,59)            0.0004         estimate D2E/DX2                !
 ! D67   D(8,9,10,57)           -0.0011         estimate D2E/DX2                !
 ! D68   D(8,9,10,59)          138.1879         estimate D2E/DX2                !
 ! D69   D(9,10,57,43)         142.6225         estimate D2E/DX2                !
 ! D70   D(9,10,57,56)          -0.0005         estimate D2E/DX2                !
 ! D71   D(59,10,57,43)          0.0015         estimate D2E/DX2                !
 ! D72   D(59,10,57,56)       -142.6215         estimate D2E/DX2                !
 ! D73   D(9,10,59,11)           0.0001         estimate D2E/DX2                !
 ! D74   D(9,10,59,42)        -142.6236         estimate D2E/DX2                !
 ! D75   D(57,10,59,11)        142.6219         estimate D2E/DX2                !
 ! D76   D(57,10,59,42)         -0.0019         estimate D2E/DX2                !
 ! D77   D(3,11,29,12)          -0.0012         estimate D2E/DX2                !
 ! D78   D(3,11,29,58)        -142.624          estimate D2E/DX2                !
 ! D79   D(59,11,29,12)        142.6224         estimate D2E/DX2                !
 ! D80   D(59,11,29,58)         -0.0004         estimate D2E/DX2                !
 ! D81   D(3,11,59,10)           0.0004         estimate D2E/DX2                !
 ! D82   D(3,11,59,42)         138.1907         estimate D2E/DX2                !
 ! D83   D(29,11,59,10)       -138.1898         estimate D2E/DX2                !
 ! D84   D(29,11,59,42)          0.0005         estimate D2E/DX2                !
 ! D85   D(4,12,13,14)          -0.0009         estimate D2E/DX2                !
 ! D86   D(4,12,13,39)        -138.192          estimate D2E/DX2                !
 ! D87   D(29,12,13,14)        138.1901         estimate D2E/DX2                !
 ! D88   D(29,12,13,39)         -0.0009         estimate D2E/DX2                !
 ! D89   D(4,12,29,11)           0.0007         estimate D2E/DX2                !
 ! D90   D(4,12,29,58)         142.624          estimate D2E/DX2                !
 ! D91   D(13,12,29,11)       -142.6229         estimate D2E/DX2                !
 ! D92   D(13,12,29,58)          0.0004         estimate D2E/DX2                !
 ! D93   D(12,13,14,15)          0.0001         estimate D2E/DX2                !
 ! D94   D(12,13,14,28)       -142.6237         estimate D2E/DX2                !
 ! D95   D(39,13,14,15)        142.6233         estimate D2E/DX2                !
 ! D96   D(39,13,14,28)         -0.0005         estimate D2E/DX2                !
 ! D97   D(12,13,39,38)        142.624          estimate D2E/DX2                !
 ! D98   D(12,13,39,40)          0.0008         estimate D2E/DX2                !
 ! D99   D(14,13,39,38)          0.0001         estimate D2E/DX2                !
 ! D100  D(14,13,39,40)       -142.6231         estimate D2E/DX2                !
 ! D101  D(13,14,15,5)          -0.0004         estimate D2E/DX2                !
 ! D102  D(13,14,15,16)       -138.1896         estimate D2E/DX2                !
 ! D103  D(28,14,15,5)         138.1899         estimate D2E/DX2                !
 ! D104  D(28,14,15,16)          0.0008         estimate D2E/DX2                !
 ! D105  D(13,14,28,27)        142.622          estimate D2E/DX2                !
 ! D106  D(13,14,28,38)          0.0007         estimate D2E/DX2                !
 ! D107  D(15,14,28,27)         -0.0007         estimate D2E/DX2                !
 ! D108  D(15,14,28,38)       -142.6219         estimate D2E/DX2                !
 ! D109  D(5,15,16,17)          -0.0003         estimate D2E/DX2                !
 ! D110  D(5,15,16,26)        -142.6228         estimate D2E/DX2                !
 ! D111  D(14,15,16,17)        142.622          estimate D2E/DX2                !
 ! D112  D(14,15,16,26)         -0.0005         estimate D2E/DX2                !
 ! D113  D(15,16,17,6)          -0.0005         estimate D2E/DX2                !
 ! D114  D(15,16,17,18)       -142.6236         estimate D2E/DX2                !
 ! D115  D(26,16,17,6)         142.6224         estimate D2E/DX2                !
 ! D116  D(26,16,17,18)         -0.0007         estimate D2E/DX2                !
 ! D117  D(15,16,26,25)        138.1894         estimate D2E/DX2                !
 ! D118  D(15,16,26,27)          0.0001         estimate D2E/DX2                !
 ! D119  D(17,16,26,25)         -0.0004         estimate D2E/DX2                !
 ! D120  D(17,16,26,27)       -138.1897         estimate D2E/DX2                !
 ! D121  D(6,17,18,19)          -0.0006         estimate D2E/DX2                !
 ! D122  D(6,17,18,24)        -138.1889         estimate D2E/DX2                !
 ! D123  D(16,17,18,19)        138.1896         estimate D2E/DX2                !
 ! D124  D(16,17,18,24)          0.0013         estimate D2E/DX2                !
 ! D125  D(17,18,19,7)           0.0003         estimate D2E/DX2                !
 ! D126  D(17,18,19,22)       -142.6219         estimate D2E/DX2                !
 ! D127  D(24,18,19,7)         142.622          estimate D2E/DX2                !
 ! D128  D(24,18,19,22)         -0.0001         estimate D2E/DX2                !
 ! D129  D(17,18,24,23)        142.6215         estimate D2E/DX2                !
 ! D130  D(17,18,24,25)         -0.0008         estimate D2E/DX2                !
 ! D131  D(19,18,24,23)          0.0001         estimate D2E/DX2                !
 ! D132  D(19,18,24,25)       -142.6222         estimate D2E/DX2                !
 ! D133  D(7,19,22,21)           0.0017         estimate D2E/DX2                !
 ! D134  D(7,19,22,23)        -142.6223         estimate D2E/DX2                !
 ! D135  D(18,19,22,21)        142.6242         estimate D2E/DX2                !
 ! D136  D(18,19,22,23)          0.0001         estimate D2E/DX2                !
 ! D137  D(8,20,21,22)           0.0003         estimate D2E/DX2                !
 ! D138  D(8,20,21,54)         142.6217         estimate D2E/DX2                !
 ! D139  D(56,20,21,22)       -142.6216         estimate D2E/DX2                !
 ! D140  D(56,20,21,54)         -0.0002         estimate D2E/DX2                !
 ! D141  D(8,20,56,55)        -142.6227         estimate D2E/DX2                !
 ! D142  D(8,20,56,57)           0.0002         estimate D2E/DX2                !
 ! D143  D(21,20,56,55)         -0.0002         estimate D2E/DX2                !
 ! D144  D(21,20,56,57)        142.6228         estimate D2E/DX2                !
 ! D145  D(20,21,22,19)         -0.001          estimate D2E/DX2                !
 ! D146  D(20,21,22,23)        138.1899         estimate D2E/DX2                !
 ! D147  D(54,21,22,19)       -138.1895         estimate D2E/DX2                !
 ! D148  D(54,21,22,23)          0.0014         estimate D2E/DX2                !
 ! D149  D(20,21,54,53)       -142.6221         estimate D2E/DX2                !
 ! D150  D(20,21,54,55)          0.0005         estimate D2E/DX2                !
 ! D151  D(22,21,54,53)         -0.0006         estimate D2E/DX2                !
 ! D152  D(22,21,54,55)        142.6221         estimate D2E/DX2                !
 ! D153  D(19,22,23,24)         -0.0001         estimate D2E/DX2                !
 ! D154  D(19,22,23,52)        142.6225         estimate D2E/DX2                !
 ! D155  D(21,22,23,24)       -142.6238         estimate D2E/DX2                !
 ! D156  D(21,22,23,52)         -0.0012         estimate D2E/DX2                !
 ! D157  D(22,23,24,18)          0.0            estimate D2E/DX2                !
 ! D158  D(22,23,24,25)        142.6223         estimate D2E/DX2                !
 ! D159  D(52,23,24,18)       -142.6222         estimate D2E/DX2                !
 ! D160  D(52,23,24,25)          0.0001         estimate D2E/DX2                !
 ! D161  D(22,23,52,51)       -138.1893         estimate D2E/DX2                !
 ! D162  D(22,23,52,53)          0.0002         estimate D2E/DX2                !
 ! D163  D(24,23,52,51)         -0.0001         estimate D2E/DX2                !
 ! D164  D(24,23,52,53)        138.1894         estimate D2E/DX2                !
 ! D165  D(18,24,25,26)         -0.0003         estimate D2E/DX2                !
 ! D166  D(18,24,25,50)        138.1894         estimate D2E/DX2                !
 ! D167  D(23,24,25,26)       -138.1899         estimate D2E/DX2                !
 ! D168  D(23,24,25,50)         -0.0002         estimate D2E/DX2                !
 ! D169  D(24,25,26,16)          0.0009         estimate D2E/DX2                !
 ! D170  D(24,25,26,27)        142.6233         estimate D2E/DX2                !
 ! D171  D(50,25,26,16)       -142.6216         estimate D2E/DX2                !
 ! D172  D(50,25,26,27)          0.0008         estimate D2E/DX2                !
 ! D173  D(24,25,50,49)       -142.6232         estimate D2E/DX2                !
 ! D174  D(24,25,50,51)          0.0002         estimate D2E/DX2                !
 ! D175  D(26,25,50,49)         -0.0007         estimate D2E/DX2                !
 ! D176  D(26,25,50,51)        142.6228         estimate D2E/DX2                !
 ! D177  D(16,26,27,28)          0.0001         estimate D2E/DX2                !
 ! D178  D(16,26,27,49)        142.6218         estimate D2E/DX2                !
 ! D179  D(25,26,27,28)       -142.6224         estimate D2E/DX2                !
 ! D180  D(25,26,27,49)         -0.0007         estimate D2E/DX2                !
 ! D181  D(26,27,28,14)          0.0002         estimate D2E/DX2                !
 ! D182  D(26,27,28,38)        138.1876         estimate D2E/DX2                !
 ! D183  D(49,27,28,14)       -138.1886         estimate D2E/DX2                !
 ! D184  D(49,27,28,38)         -0.0012         estimate D2E/DX2                !
 ! D185  D(26,27,49,36)       -142.6217         estimate D2E/DX2                !
 ! D186  D(26,27,49,50)          0.0002         estimate D2E/DX2                !
 ! D187  D(28,27,49,36)          0.0003         estimate D2E/DX2                !
 ! D188  D(28,27,49,50)        142.6222         estimate D2E/DX2                !
 ! D189  D(14,28,38,37)        142.6221         estimate D2E/DX2                !
 ! D190  D(14,28,38,39)         -0.0007         estimate D2E/DX2                !
 ! D191  D(27,28,38,37)          0.0017         estimate D2E/DX2                !
 ! D192  D(27,28,38,39)       -142.6211         estimate D2E/DX2                !
 ! D193  D(11,29,58,40)        138.1902         estimate D2E/DX2                !
 ! D194  D(11,29,58,41)          0.0002         estimate D2E/DX2                !
 ! D195  D(12,29,58,40)          0.0001         estimate D2E/DX2                !
 ! D196  D(12,29,58,41)       -138.1898         estimate D2E/DX2                !
 ! D197  D(37,30,31,32)        138.1901         estimate D2E/DX2                !
 ! D198  D(37,30,31,40)          0.0037         estimate D2E/DX2                !
 ! D199  D(60,30,31,32)         -0.003          estimate D2E/DX2                !
 ! D200  D(60,30,31,40)       -138.1894         estimate D2E/DX2                !
 ! D201  D(31,30,37,36)       -142.6245         estimate D2E/DX2                !
 ! D202  D(31,30,37,38)         -0.0026         estimate D2E/DX2                !
 ! D203  D(60,30,37,36)          0.0013         estimate D2E/DX2                !
 ! D204  D(60,30,37,38)        142.6232         estimate D2E/DX2                !
 ! D205  D(31,30,60,34)          0.0012         estimate D2E/DX2                !
 ! D206  D(31,30,60,35)        142.6251         estimate D2E/DX2                !
 ! D207  D(37,30,60,34)       -142.6249         estimate D2E/DX2                !
 ! D208  D(37,30,60,35)         -0.001          estimate D2E/DX2                !
 ! D209  D(30,31,32,33)          0.0028         estimate D2E/DX2                !
 ! D210  D(30,31,32,41)       -142.6196         estimate D2E/DX2                !
 ! D211  D(40,31,32,33)        142.6222         estimate D2E/DX2                !
 ! D212  D(40,31,32,41)         -0.0001         estimate D2E/DX2                !
 ! D213  D(30,31,40,39)         -0.0023         estimate D2E/DX2                !
 ! D214  D(30,31,40,58)        142.6207         estimate D2E/DX2                !
 ! D215  D(32,31,40,39)       -142.6223         estimate D2E/DX2                !
 ! D216  D(32,31,40,58)          0.0007         estimate D2E/DX2                !
 ! D217  D(31,32,33,34)         -0.0007         estimate D2E/DX2                !
 ! D218  D(31,32,33,44)       -138.1896         estimate D2E/DX2                !
 ! D219  D(41,32,33,34)        138.1886         estimate D2E/DX2                !
 ! D220  D(41,32,33,44)         -0.0003         estimate D2E/DX2                !
 ! D221  D(31,32,41,42)        142.6231         estimate D2E/DX2                !
 ! D222  D(31,32,41,58)         -0.0006         estimate D2E/DX2                !
 ! D223  D(33,32,41,42)          0.0014         estimate D2E/DX2                !
 ! D224  D(33,32,41,58)       -142.6223         estimate D2E/DX2                !
 ! D225  D(32,33,34,46)       -142.6221         estimate D2E/DX2                !
 ! D226  D(32,33,34,60)         -0.0011         estimate D2E/DX2                !
 ! D227  D(44,33,34,46)         -0.0005         estimate D2E/DX2                !
 ! D228  D(44,33,34,60)        142.6205         estimate D2E/DX2                !
 ! D229  D(32,33,44,43)         -0.0001         estimate D2E/DX2                !
 ! D230  D(32,33,44,45)        142.6237         estimate D2E/DX2                !
 ! D231  D(34,33,44,43)       -142.6223         estimate D2E/DX2                !
 ! D232  D(34,33,44,45)          0.0014         estimate D2E/DX2                !
 ! D233  D(33,34,46,45)         -0.0006         estimate D2E/DX2                !
 ! D234  D(33,34,46,47)        142.6224         estimate D2E/DX2                !
 ! D235  D(60,34,46,45)       -142.6217         estimate D2E/DX2                !
 ! D236  D(60,34,46,47)          0.0013         estimate D2E/DX2                !
 ! D237  D(33,34,60,30)          0.0009         estimate D2E/DX2                !
 ! D238  D(33,34,60,35)       -138.1903         estimate D2E/DX2                !
 ! D239  D(46,34,60,30)        138.1886         estimate D2E/DX2                !
 ! D240  D(46,34,60,35)         -0.0026         estimate D2E/DX2                !
 ! D241  D(48,35,36,37)        142.6224         estimate D2E/DX2                !
 ! D242  D(48,35,36,49)         -0.0004         estimate D2E/DX2                !
 ! D243  D(60,35,36,37)          0.0005         estimate D2E/DX2                !
 ! D244  D(60,35,36,49)       -142.6223         estimate D2E/DX2                !
 ! D245  D(36,35,48,47)       -138.189          estimate D2E/DX2                !
 ! D246  D(36,35,48,51)          0.0001         estimate D2E/DX2                !
 ! D247  D(60,35,48,47)         -0.0002         estimate D2E/DX2                !
 ! D248  D(60,35,48,51)        138.1888         estimate D2E/DX2                !
 ! D249  D(36,35,60,30)          0.0003         estimate D2E/DX2                !
 ! D250  D(36,35,60,34)        142.624          estimate D2E/DX2                !
 ! D251  D(48,35,60,30)       -142.6217         estimate D2E/DX2                !
 ! D252  D(48,35,60,34)          0.002          estimate D2E/DX2                !
 ! D253  D(35,36,37,30)         -0.0012         estimate D2E/DX2                !
 ! D254  D(35,36,37,38)       -142.6226         estimate D2E/DX2                !
 ! D255  D(49,36,37,30)        142.6218         estimate D2E/DX2                !
 ! D256  D(49,36,37,38)          0.0004         estimate D2E/DX2                !
 ! D257  D(35,36,49,27)        138.1902         estimate D2E/DX2                !
 ! D258  D(35,36,49,50)          0.0009         estimate D2E/DX2                !
 ! D259  D(37,36,49,27)          0.0001         estimate D2E/DX2                !
 ! D260  D(37,36,49,50)       -138.1892         estimate D2E/DX2                !
 ! D261  D(30,37,38,28)       -138.1898         estimate D2E/DX2                !
 ! D262  D(30,37,38,39)          0.0            estimate D2E/DX2                !
 ! D263  D(36,37,38,28)         -0.0013         estimate D2E/DX2                !
 ! D264  D(36,37,38,39)        138.1885         estimate D2E/DX2                !
 ! D265  D(28,38,39,13)          0.0004         estimate D2E/DX2                !
 ! D266  D(28,38,39,40)        142.6239         estimate D2E/DX2                !
 ! D267  D(37,38,39,13)       -142.6221         estimate D2E/DX2                !
 ! D268  D(37,38,39,40)          0.0014         estimate D2E/DX2                !
 ! D269  D(13,39,40,31)        138.1901         estimate D2E/DX2                !
 ! D270  D(13,39,40,58)         -0.0002         estimate D2E/DX2                !
 ! D271  D(38,39,40,31)         -0.0003         estimate D2E/DX2                !
 ! D272  D(38,39,40,58)       -138.1906         estimate D2E/DX2                !
 ! D273  D(31,40,58,29)       -142.6235         estimate D2E/DX2                !
 ! D274  D(31,40,58,41)         -0.001          estimate D2E/DX2                !
 ! D275  D(39,40,58,29)         -0.0002         estimate D2E/DX2                !
 ! D276  D(39,40,58,41)        142.6222         estimate D2E/DX2                !
 ! D277  D(32,41,42,43)         -0.002          estimate D2E/DX2                !
 ! D278  D(32,41,42,59)       -138.1905         estimate D2E/DX2                !
 ! D279  D(58,41,42,43)        138.189          estimate D2E/DX2                !
 ! D280  D(58,41,42,59)          0.0005         estimate D2E/DX2                !
 ! D281  D(32,41,58,29)        142.624          estimate D2E/DX2                !
 ! D282  D(32,41,58,40)          0.001          estimate D2E/DX2                !
 ! D283  D(42,41,58,29)         -0.0003         estimate D2E/DX2                !
 ! D284  D(42,41,58,40)       -142.6234         estimate D2E/DX2                !
 ! D285  D(41,42,43,44)          0.0016         estimate D2E/DX2                !
 ! D286  D(41,42,43,57)       -142.6228         estimate D2E/DX2                !
 ! D287  D(59,42,43,44)        142.6237         estimate D2E/DX2                !
 ! D288  D(59,42,43,57)         -0.0006         estimate D2E/DX2                !
 ! D289  D(41,42,59,10)        142.6234         estimate D2E/DX2                !
 ! D290  D(41,42,59,11)         -0.0006         estimate D2E/DX2                !
 ! D291  D(43,42,59,10)          0.0016         estimate D2E/DX2                !
 ! D292  D(43,42,59,11)       -142.6225         estimate D2E/DX2                !
 ! D293  D(42,43,44,33)         -0.0005         estimate D2E/DX2                !
 ! D294  D(42,43,44,45)       -138.1917         estimate D2E/DX2                !
 ! D295  D(57,43,44,33)        138.1915         estimate D2E/DX2                !
 ! D296  D(57,43,44,45)          0.0003         estimate D2E/DX2                !
 ! D297  D(42,43,57,10)         -0.0006         estimate D2E/DX2                !
 ! D298  D(42,43,57,56)        142.6229         estimate D2E/DX2                !
 ! D299  D(44,43,57,10)       -142.6242         estimate D2E/DX2                !
 ! D300  D(44,43,57,56)         -0.0008         estimate D2E/DX2                !
 ! D301  D(33,44,45,46)         -0.0018         estimate D2E/DX2                !
 ! D302  D(33,44,45,55)       -142.6239         estimate D2E/DX2                !
 ! D303  D(43,44,45,46)        142.6222         estimate D2E/DX2                !
 ! D304  D(43,44,45,55)          0.0002         estimate D2E/DX2                !
 ! D305  D(44,45,46,34)          0.0015         estimate D2E/DX2                !
 ! D306  D(44,45,46,47)       -142.6208         estimate D2E/DX2                !
 ! D307  D(55,45,46,34)        142.6233         estimate D2E/DX2                !
 ! D308  D(55,45,46,47)          0.0009         estimate D2E/DX2                !
 ! D309  D(44,45,55,54)        138.1893         estimate D2E/DX2                !
 ! D310  D(44,45,55,56)         -0.0002         estimate D2E/DX2                !
 ! D311  D(46,45,55,54)          0.0003         estimate D2E/DX2                !
 ! D312  D(46,45,55,56)       -138.1893         estimate D2E/DX2                !
 ! D313  D(34,46,47,48)          0.0005         estimate D2E/DX2                !
 ! D314  D(34,46,47,53)       -138.1912         estimate D2E/DX2                !
 ! D315  D(45,46,47,48)        138.1902         estimate D2E/DX2                !
 ! D316  D(45,46,47,53)         -0.0015         estimate D2E/DX2                !
 ! D317  D(46,47,48,35)         -0.001          estimate D2E/DX2                !
 ! D318  D(46,47,48,51)       -142.623          estimate D2E/DX2                !
 ! D319  D(53,47,48,35)        142.6231         estimate D2E/DX2                !
 ! D320  D(53,47,48,51)          0.0011         estimate D2E/DX2                !
 ! D321  D(46,47,53,52)        142.6238         estimate D2E/DX2                !
 ! D322  D(46,47,53,54)          0.0008         estimate D2E/DX2                !
 ! D323  D(48,47,53,52)         -0.0009         estimate D2E/DX2                !
 ! D324  D(48,47,53,54)       -142.6239         estimate D2E/DX2                !
 ! D325  D(35,48,51,50)         -0.0003         estimate D2E/DX2                !
 ! D326  D(35,48,51,52)       -142.6229         estimate D2E/DX2                !
 ! D327  D(47,48,51,50)        142.6218         estimate D2E/DX2                !
 ! D328  D(47,48,51,52)         -0.0008         estimate D2E/DX2                !
 ! D329  D(27,49,50,25)          0.0003         estimate D2E/DX2                !
 ! D330  D(27,49,50,51)       -142.6232         estimate D2E/DX2                !
 ! D331  D(36,49,50,25)        142.6224         estimate D2E/DX2                !
 ! D332  D(36,49,50,51)         -0.0011         estimate D2E/DX2                !
 ! D333  D(25,50,51,48)       -138.1897         estimate D2E/DX2                !
 ! D334  D(25,50,51,52)         -0.0002         estimate D2E/DX2                !
 ! D335  D(49,50,51,48)          0.0008         estimate D2E/DX2                !
 ! D336  D(49,50,51,52)        138.1904         estimate D2E/DX2                !
 ! D337  D(48,51,52,23)        142.6228         estimate D2E/DX2                !
 ! D338  D(48,51,52,53)          0.0003         estimate D2E/DX2                !
 ! D339  D(50,51,52,23)          0.0001         estimate D2E/DX2                !
 ! D340  D(50,51,52,53)       -142.6224         estimate D2E/DX2                !
 ! D341  D(23,52,53,47)       -142.622          estimate D2E/DX2                !
 ! D342  D(23,52,53,54)          0.0006         estimate D2E/DX2                !
 ! D343  D(51,52,53,47)          0.0004         estimate D2E/DX2                !
 ! D344  D(51,52,53,54)        142.623          estimate D2E/DX2                !
 ! D345  D(47,53,54,21)        138.1893         estimate D2E/DX2                !
 ! D346  D(47,53,54,55)          0.0003         estimate D2E/DX2                !
 ! D347  D(52,53,54,21)         -0.0005         estimate D2E/DX2                !
 ! D348  D(52,53,54,55)       -138.1894         estimate D2E/DX2                !
 ! D349  D(21,54,55,45)       -142.6229         estimate D2E/DX2                !
 ! D350  D(21,54,55,56)         -0.0006         estimate D2E/DX2                !
 ! D351  D(53,54,55,45)         -0.0009         estimate D2E/DX2                !
 ! D352  D(53,54,55,56)        142.6213         estimate D2E/DX2                !
 ! D353  D(45,55,56,20)        142.6223         estimate D2E/DX2                !
 ! D354  D(45,55,56,57)         -0.0002         estimate D2E/DX2                !
 ! D355  D(54,55,56,20)          0.0005         estimate D2E/DX2                !
 ! D356  D(54,55,56,57)       -142.622          estimate D2E/DX2                !
 ! D357  D(20,56,57,10)          0.0009         estimate D2E/DX2                !
 ! D358  D(20,56,57,43)       -138.1891         estimate D2E/DX2                !
 ! D359  D(55,56,57,10)        138.1907         estimate D2E/DX2                !
 ! D360  D(55,56,57,43)          0.0007         estimate D2E/DX2                !
 --------------------------------------------------------------------------------
 Trust Radius=3.00D-01 FncErr=1.00D-07 GrdErr=1.00D-06 EigMax=2.50D+02 EigMin=1.00D-04
 Number of steps in this run=    360 maximum allowed number of steps=    360.
 GradGradGradGradGradGradGradGradGradGradGradGradGradGradGradGradGradGrad

 Leave Link  103 at Sun Jan 15 14:31:04 2023, MaxMem=  4026531840 cpu:               3.6 elap:               0.2
 (Enter /software/gaussian/g16-c01/avx2/g16/l202.exe)
 This structure is nearly, but not quite of a higher symmetry.
 Consider Symm=Loose if the higher symmetry is desired.
 Stoichiometry    C60
 Framework group  C1[X(C60)]
 Deg. of freedom   174
 Full point group                 C1      NOp   1
 Largest Abelian subgroup         C1      NOp   1
 Largest concise Abelian subgroup C1      NOp   1
                         Standard orientation:                         
 ---------------------------------------------------------------------
 Center     Atomic      Atomic             Coordinates (Angstroms)
 Number     Number       Type             X           Y           Z
 ---------------------------------------------------------------------
      1          6           0        0.242377   -3.546089   -0.132564
      2          6           0       -0.773452   -3.275353   -1.151271
      3          6           0       -0.417774   -2.650695   -2.334756
      4          6           0        0.974037   -2.261036   -2.567213
      5          6           0        1.934874   -2.517155   -1.603626
      6          6           0        1.558865   -3.177562   -0.352439
      7          6           0       -0.367169   -3.334723    1.181506
      8          6           0       -1.759693   -2.933309    0.974950
      9          6           0       -2.010811   -2.896604   -0.466819
     10          6           0       -2.825546   -1.913668   -1.002851
     11          6           0       -1.279132   -1.611513   -2.901436
     12          6           0        0.972842   -0.981048   -3.277572
     13          6           0        1.932581   -0.026480   -2.985922
     14          6           0        2.948406   -0.297274   -1.967221
     15          6           0        2.949515   -1.507988   -1.295300
     16          6           0        3.200602   -1.544715    0.146440
     17          6           0        2.341140   -2.576570    0.729154
     18          6           0        1.764593   -2.376641    1.972109
     19          6           0        0.372764   -2.766262    2.204574
     20          6           0       -2.336933   -1.985130    1.802625
     21          6           0       -1.554691   -1.384133    2.884200
     22          6           0       -0.237507   -1.763831    3.079583
     23          6           0        0.777137   -0.754658    3.387917
     24          6           0        2.014498   -1.133408    2.703453
     25          6           0        2.827446   -0.157378    2.152271
     26          6           0        3.436996   -0.368757    0.838213
     27          6           0        3.435831    0.911236    0.127828
     28          6           0        3.198333    0.945991   -1.235881
     29          6           0       -0.419666   -0.579620   -3.484146
     30          6           0        0.367134    3.334735   -1.181506
     31          6           0       -0.372794    2.766290   -2.204575
     32          6           0       -1.764596    2.376644   -1.972110
     33          6           0       -2.341146    2.576594   -0.729152
     34          6           0       -1.558894    3.177600    0.352422
     35          6           0        0.773425    3.275339    1.151261
     36          6           0        2.010788    2.896598    0.466796
     37          6           0        1.759707    2.933320   -0.974932
     38          6           0        2.336953    1.985133   -1.802594
     39          6           0        1.554676    1.384096   -2.884193
     40          6           0        0.237498    1.763810   -3.079594
     41          6           0       -2.014489    1.133397   -2.703428
     42          6           0       -2.827419    0.157368   -2.152270
     43          6           0       -3.436967    0.368721   -0.838184
     44          6           0       -3.200588    1.544702   -0.146427
     45          6           0       -2.949521    1.507994    1.295284
     46          6           0       -1.934888    2.517154    1.603608
     47          6           0       -0.974033    2.261012    2.567174
     48          6           0        0.417778    2.650655    2.334719
     49          6           0        2.825548    1.913667    1.002847
     50          6           0        2.449541    1.253235    2.254015
     51          6           0        1.279149    1.611482    2.901435
     52          6           0        0.419687    0.579610    3.484155
     53          6           0       -0.972862    0.981052    3.277572
     54          6           0       -1.932596    0.026503    2.985944
     55          6           0       -2.948415    0.297279    1.967232
     56          6           0       -3.198314   -0.945935    1.235900
     57          6           0       -3.435807   -0.911204   -0.127812
     58          6           0       -0.777106    0.754661   -3.387905
     59          6           0       -2.449515   -1.253258   -2.254020
     60          6           0       -0.242397    3.546122    0.132531
 ---------------------------------------------------------------------
 Rotational constants (GHZ):           0.0832220           0.0832218           0.0832214
 Leave Link  202 at Sun Jan 15 14:31:04 2023, MaxMem=  4026531840 cpu:               0.5 elap:               0.0
 (Enter /software/gaussian/g16-c01/avx2/g16/l301.exe)
 Standard basis: STO-3G (5D, 7F)
 Ernie: Thresh=  0.10000D-02 Tol=  0.10000D-05 Strict=F.
 There are   300 symmetry adapted cartesian basis functions of A   symmetry.
 There are   300 symmetry adapted basis functions of A   symmetry.
   300 basis functions,   900 primitive gaussians,   300 cartesian basis functions
   180 alpha electrons      180 beta electrons
       nuclear repulsion energy      8310.3962913868 Hartrees.
 IExCor=  402 DFT=T Ex=B Corr=LYP ExCW=0 ScaHFX=  0.000000
 ScaDFX=  1.000000  1.000000  1.000000  1.000000 ScalE2=  1.000000  1.000000
 IRadAn=      5 IRanWt=     -1 IRanGd=            0 ICorTp=0 IEmpDi=  4
 NAtoms=   60 NActive=   60 NUniq=   60 SFac= 1.00D+00 NAtFMM=   60 NAOKFM=T Big=T
 Integral buffers will be    131072 words long.
 Raffenetti 2 integral format.
 Two-electron integral symmetry is turned on.
 Leave Link  301 at Sun Jan 15 14:31:04 2023, MaxMem=  4026531840 cpu:               1.2 elap:               0.1
 (Enter /software/gaussian/g16-c01/avx2/g16/l302.exe)
 NPDir=0 NMtPBC=     1 NCelOv=     1 NCel=       1 NClECP=     1 NCelD=      1
         NCelK=      1 NCelE2=     1 NClLst=     1 CellRange=     0.0.
 One-electron integrals computed using PRISM.
 One-electron integral symmetry used in STVInt
 NBasis=   300 RedAO= T EigKep=  1.65D-01  NBF=   300
 NBsUse=   300 1.00D-06 EigRej= -1.00D+00 NBFU=   300
 Precomputing XC quadrature grid using
 IXCGrd= 4 IRadAn=           5 IRanWt=          -1 IRanGd=           0 AccXCQ= 0.00D+00.
 Generated NRdTot=       0 NPtTot=           0 NUsed=           0 NTot=          32
 NSgBfM=   273   273   273   273   273 MxSgAt=    60 MxSgA2=    60.
 Leave Link  302 at Sun Jan 15 14:31:05 2023, MaxMem=  4026531840 cpu:              11.3 elap:               0.5
 (Enter /software/gaussian/g16-c01/avx2/g16/l303.exe)
 DipDrv:  MaxL=1.
 Leave Link  303 at Sun Jan 15 14:31:05 2023, MaxMem=  4026531840 cpu:               1.0 elap:               0.1
 (Enter /software/gaussian/g16-c01/avx2/g16/l401.exe)
 ExpMin= 2.22D-01 ExpMax= 7.16D+01 ExpMxC= 7.16D+01 IAcc=3 IRadAn=         5 AccDes= 0.00D+00
 Harris functional with IExCor=  402 and IRadAn=       5 diagonalized for initial guess.
 HarFok:  IExCor=  402 AccDes= 0.00D+00 IRadAn=         5 IDoV= 1 UseB2=F ITyADJ=14
 ICtDFT=  3500011 ScaDFX=  1.000000  1.000000  1.000000  1.000000
 FoFCou: FMM=F IPFlag=           0 FMFlag=      100000 FMFlg1=        2001
         NFxFlg=           0 DoJE=T BraDBF=F KetDBF=T FulRan=T
         wScrn=  0.000000 ICntrl=       500 IOpCl=  0 I1Cent=   200000004 NGrid=           0
         NMat0=    1 NMatS0=      1 NMatT0=    0 NMatD0=    1 NMtDS0=    0 NMtDT0=    0
 Petite list used in FoFCou.
 Harris En= -2256.96348181512    
 JPrj=0 DoOrth=F DoCkMO=F.
 Leave Link  401 at Sun Jan 15 14:31:06 2023, MaxMem=  4026531840 cpu:              31.4 elap:               1.4
 (Enter /software/gaussian/g16-c01/avx2/g16/l502.exe)
 Integral symmetry usage will be decided dynamically.
 Closed shell SCF:
 Using DIIS extrapolation, IDIIS=  1040.
 NGot=  4026531840 LenX=  4026339134 LenY=  4026248693
 Requested convergence on RMS density matrix=1.00D-08 within 128 cycles.
 Requested convergence on MAX density matrix=1.00D-06.
 Requested convergence on             energy=1.00D-06.
 No special actions if energy rises.
 Fock matrices will be formed incrementally for  20 cycles.
 Integral accuracy reduced to 1.0D-05 until final iterations.

 Cycle   1  Pass 0  IDiag  1:
 FoFJK:  IHMeth= 1 ICntrl=     500 DoSepK=F KAlg= 0 I1Cent=           0 FoldK=F
 IRaf= 990000000 NMat=       1 IRICut=       1 DoRegI=T DoRafI=F ISym2E= 0 IDoP0=0 IntGTp=1.
 FoFCou: FMM=T IPFlag=           0 FMFlag=      100000 FMFlg1=        2001
         NFxFlg=           0 DoJE=T BraDBF=F KetDBF=F FulRan=T
         wScrn=  0.000000 ICntrl=       500 IOpCl=  0 I1Cent=           0 NGrid=           0
         NMat0=    1 NMatS0=      1 NMatT0=    0 NMatD0=    1 NMtDS0=    0 NMtDT0=    0
 Symmetry not used in FoFCou.
 FMM levels:  10  Number of levels for PrismC:   9
 E= -2257.17274661017    
 DIIS: error= 7.99D-03 at cycle   1 NSaved=   1.
 NSaved= 1 IEnMin= 1 EnMin= -2257.17274661017     IErMin= 1 ErrMin= 7.99D-03
 ErrMax= 7.99D-03  0.00D+00 EMaxC= 1.00D-01 BMatC= 1.61D-02 BMatP= 1.61D-02
 IDIUse=3 WtCom= 9.20D-01 WtEn= 7.99D-02
 Coeff-Com:  0.100D+01
 Coeff-En:   0.100D+01
 Coeff:      0.100D+01
 Gap=     0.081 Goal=   None    Shift=    0.000
 GapD=    0.081 DampG=0.500 DampE=1.000 DampFc=0.5000 IDamp=-1.
 Damping current iteration by 5.00D-01
 RMSDP=1.02D-03 MaxDP=1.34D-02              OVMax= 0.00D+00

 Cycle   2  Pass 0  IDiag  1:
 RMSU=  5.11D-04    CP:  1.00D+00
 E= -2257.18563063514     Delta-E=       -0.012884024976 Rises=F Damp=T
 DIIS: error= 3.60D-03 at cycle   2 NSaved=   2.
 NSaved= 2 IEnMin= 2 EnMin= -2257.18563063514     IErMin= 2 ErrMin= 3.60D-03
 ErrMax= 3.60D-03  0.00D+00 EMaxC= 1.00D-01 BMatC= 2.39D-03 BMatP= 1.61D-02
 IDIUse=3 WtCom= 9.64D-01 WtEn= 3.60D-02
 Coeff-Com: -0.457D+00 0.146D+01
 Coeff-En:   0.000D+00 0.100D+01
 Coeff:     -0.440D+00 0.144D+01
 Gap=     0.082 Goal=   None    Shift=    0.000
 RMSDP=2.68D-04 MaxDP=6.00D-03 DE=-1.29D-02 OVMax= 0.00D+00

 Cycle   3  Pass 0  IDiag  1:
 RMSU=  2.00D-04    CP:  1.00D+00  1.33D+00
 E= -2257.19634801546     Delta-E=       -0.010717380314 Rises=F Damp=F
 DIIS: error= 8.40D-04 at cycle   3 NSaved=   3.
 NSaved= 3 IEnMin= 3 EnMin= -2257.19634801546     IErMin= 3 ErrMin= 8.40D-04
 ErrMax= 8.40D-04  0.00D+00 EMaxC= 1.00D-01 BMatC= 8.48D-05 BMatP= 2.39D-03
 IDIUse=3 WtCom= 9.92D-01 WtEn= 8.40D-03
 Coeff-Com: -0.145D+00 0.305D+00 0.840D+00
 Coeff-En:   0.000D+00 0.000D+00 0.100D+01
 Coeff:     -0.144D+00 0.302D+00 0.841D+00
 Gap=     0.082 Goal=   None    Shift=    0.000
 RMSDP=5.68D-05 MaxDP=9.14D-04 DE=-1.07D-02 OVMax= 0.00D+00

 Cycle   4  Pass 0  IDiag  1:
 RMSU=  2.07D-06    CP:  1.00D+00  1.43D+00  8.43D-01
 E= -2257.19652914283     Delta-E=       -0.000181127371 Rises=F Damp=F
 DIIS: error= 1.42D-05 at cycle   4 NSaved=   4.
 NSaved= 4 IEnMin= 4 EnMin= -2257.19652914283     IErMin= 4 ErrMin= 1.42D-05
 ErrMax= 1.42D-05  0.00D+00 EMaxC= 1.00D-01 BMatC= 4.69D-08 BMatP= 8.48D-05
 IDIUse=1 WtCom= 1.00D+00 WtEn= 0.00D+00
 Coeff-Com: -0.694D-01 0.146D+00 0.406D+00 0.518D+00
 Coeff:     -0.694D-01 0.146D+00 0.406D+00 0.518D+00
 Gap=     0.082 Goal=   None    Shift=    0.000
 RMSDP=2.45D-06 MaxDP=7.87D-05 DE=-1.81D-04 OVMax= 0.00D+00

 Initial convergence to 1.0D-05 achieved.  Increase integral accuracy.
 Cycle   5  Pass 1  IDiag  1:
 E= -2257.19714049170     Delta-E=       -0.000611348873 Rises=F Damp=F
 DIIS: error= 8.24D-05 at cycle   1 NSaved=   1.
 NSaved= 1 IEnMin= 1 EnMin= -2257.19714049170     IErMin= 1 ErrMin= 8.24D-05
 ErrMax= 8.24D-05  0.00D+00 EMaxC= 1.00D-01 BMatC= 1.69D-06 BMatP= 1.69D-06
 IDIUse=1 WtCom= 1.00D+00 WtEn= 0.00D+00
 Coeff-Com:  0.100D+01
 Coeff:      0.100D+01
 Gap=     0.082 Goal=   None    Shift=    0.000
 RMSDP=2.45D-06 MaxDP=7.87D-05 DE=-6.11D-04 OVMax= 0.00D+00

 Cycle   6  Pass 1  IDiag  1:
 RMSU=  1.61D-05    CP:  1.00D+00
 E= -2257.19714424803     Delta-E=       -0.000003756333 Rises=F Damp=F
 DIIS: error= 5.92D-05 at cycle   2 NSaved=   2.
[...]
 (Enter /software/gaussian/g16-c01/avx2/g16/l202.exe)
 Stoichiometry    C60
 Framework group  C1[X(C60)]
 Deg. of freedom   174
 Full point group                 C1      NOp   1
 RotChk:  IX=0 Diff= 7.34D-11
 Largest Abelian subgroup         C1      NOp   1
 Largest concise Abelian subgroup C1      NOp   1
                         Standard orientation:                         
 ---------------------------------------------------------------------
 Center     Atomic      Atomic             Coordinates (Angstroms)
 Number     Number       Type             X           Y           Z
 ---------------------------------------------------------------------
      1          6           0       -2.962192    2.110172   -0.064792
      2          6           0       -2.848968    1.699374   -1.492264
      3          6           0       -3.102166    0.343960   -1.867969
      4          6           0       -3.479338   -0.658133   -0.832193
      5          6           0       -3.587923   -0.264049    0.537230
      6          6           0       -3.323978    1.148837    0.928875
      7          6           0       -1.886840    3.102349    0.215364
      8          6           0       -1.109065    3.304784   -1.038969
      9          6           0       -1.703718    2.437711   -2.094354
     10          6           0       -0.858219    1.790583   -3.047670
     11          6           0       -2.220854   -0.330553   -2.861699
     12          6           0       -2.831120   -1.951990   -1.185823
     13          6           0       -2.317803   -2.799094   -0.155612
     14          6           0       -2.430956   -2.388260    1.271845
     15          6           0       -3.052828   -1.147061    1.611092
     16          6           0       -2.458191   -0.279942    2.666412
     17          6           0       -2.625761    1.138981    2.244774
     18          6           0       -1.594208    2.090852    2.513570
     19          6           0       -1.217063    3.092924    1.477790
     20          6           0        0.306838    3.489541   -0.979856
     21          6           0        1.005002    3.479687    0.336085
     22          6           0        0.258861    3.285503    1.539416
     23          6           0        0.793895    2.402426    2.613264
     24          6           0       -0.351364    1.664089    3.215336
     25          6           0       -0.190601    0.302857    3.619838
     26          6           0       -1.265895   -0.689331    3.339636
     27          6           0       -0.617700   -1.983173    2.986053
     28          6           0       -1.188152   -2.815045    1.973635
     29          6           0       -2.053285   -1.749490   -2.440084
     30          6           0        1.886842   -3.102348   -0.215365
     31          6           0        1.217065   -3.092923   -1.477791
     32          6           0        1.594208   -2.090852   -2.513569
     33          6           0        2.625762   -1.138982   -2.244773
     34          6           0        3.323980   -1.148838   -0.928876
     35          6           0        2.848968   -1.699374    1.492264
     36          6           0        1.703717   -2.437712    2.094352
     37          6           0        1.109065   -3.304784    1.038971
     38          6           0       -0.306837   -3.489540    0.979858
     39          6           0       -1.005004   -3.479686   -0.336086
     40          6           0       -0.258863   -3.285501   -1.539417
     41          6           0        0.351364   -1.664087   -3.215335
     42          6           0        0.190601   -0.302858   -3.619837
     43          6           0        1.265894    0.689332   -3.339635
     44          6           0        2.458192    0.279943   -2.666411
     45          6           0        3.052829    1.147060   -1.611093
     46          6           0        3.587924    0.264049   -0.537231
     47          6           0        3.479336    0.658132    0.832192
     48          6           0        3.102164   -0.343961    1.867968
     49          6           0        0.858217   -1.790583    3.047671
     50          6           0        1.122201   -0.377744    3.439317
     51          6           0        2.220853    0.330554    2.861699
     52          6           0        2.053283    1.749489    2.440085
     53          6           0        2.831120    1.951989    1.185821
     54          6           0        2.317805    2.799093    0.155612
     55          6           0        2.430956    2.388261   -1.271846
     56          6           0        1.188155    2.815044   -1.973634
     57          6           0        0.617701    1.983171   -2.986052
     58          6           0       -0.793895   -2.402427   -2.613263
     59          6           0       -1.122202    0.377745   -3.439316
     60          6           0        2.962192   -2.110173    0.064791
 ---------------------------------------------------------------------
 Rotational constants (GHZ):           0.0795756           0.0795753           0.0795746
 Leave Link  202 at Sun Jan 15 14:33:06 2023, MaxMem=  4026531840 cpu:               0.3 elap:               0.0
 (Enter /software/gaussian/g16-c01/avx2/g16/l601.exe)
 Copying SCF densities to generalized density rwf, IOpCl= 0 IROHF=0.

 **********************************************************************

            Population analysis using the SCF Density.

 **********************************************************************

 Orbital symmetries:
       Occupied  (A) (A) (A) (A) (A) (A) (A) (A) (A) (A) (A) (A)
                 (A) (A) (A) (A) (A) (A) (A) (A) (A) (A) (A) (A)
                 (A) (A) (A) (A) (A) (A) (A) (A) (A) (A) (A) (A)
                 (A) (A) (A) (A) (A) (A) (A) (A) (A) (A) (A) (A)
                 (A) (A) (A) (A) (A) (A) (A) (A) (A) (A) (A) (A)
                 (A) (A) (A) (A) (A) (A) (A) (A) (A) (A) (A) (A)
                 (A) (A) (A) (A) (A) (A) (A) (A) (A) (A) (A) (A)
                 (A) (A) (A) (A) (A) (A) (A) (A) (A) (A) (A) (A)
                 (A) (A) (A) (A) (A) (A) (A) (A) (A) (A) (A) (A)
                 (A) (A) (A) (A) (A) (A) (A) (A) (A) (A) (A) (A)
                 (A) (A) (A) (A) (A) (A) (A) (A) (A) (A) (A) (A)
                 (A) (A) (A) (A) (A) (A) (A) (A) (A) (A) (A) (A)
                 (A) (A) (A) (A) (A) (A) (A) (A) (A) (A) (A) (A)
                 (A) (A) (A) (A) (A) (A) (A) (A) (A) (A) (A) (A)
                 (A) (A) (A) (A) (A) (A) (A) (A) (A) (A) (A) (A)
       Virtual   (A) (A) (A) (A) (A) (A) (A) (A) (A) (A) (A) (A)
                 (A) (A) (A) (A) (A) (A) (A) (A) (A) (A) (A) (A)
                 (A) (A) (A) (A) (A) (A) (A) (A) (A) (A) (A) (A)
                 (A) (A) (A) (A) (A) (A) (A) (A) (A) (A) (A) (A)
                 (A) (A) (A) (A) (A) (A) (A) (A) (A) (A) (A) (A)
                 (A) (A) (A) (A) (A) (A) (A) (A) (A) (A) (A) (A)
                 (A) (A) (A) (A) (A) (A) (A) (A) (A) (A) (A) (A)
                 (A) (A) (A) (A) (A) (A) (A) (A) (A) (A) (A) (A)
                 (A) (A) (A) (A) (A) (A) (A) (A) (A) (A) (A) (A)
                 (A) (A) (A) (A) (A) (A) (A) (A) (A) (A) (A) (A)
 The electronic state is 1-A.
 Alpha  occ. eigenvalues --   -9.78706  -9.78706  -9.78706  -9.78703  -9.78703
 Alpha  occ. eigenvalues --   -9.78703  -9.78702  -9.78672  -9.78672  -9.78672
 Alpha  occ. eigenvalues --   -9.78672  -9.78653  -9.78653  -9.78653  -9.78653
 Alpha  occ. eigenvalues --   -9.78653  -9.78641  -9.78641  -9.78641  -9.78636
 Alpha  occ. eigenvalues --   -9.78636  -9.78636  -9.78636  -9.78636  -9.78586
 Alpha  occ. eigenvalues --   -9.78586  -9.78586  -9.78571  -9.78571  -9.78571
 Alpha  occ. eigenvalues --   -9.78543  -9.78543  -9.78543  -9.78543  -9.78543
 Alpha  occ. eigenvalues --   -9.78522  -9.78522  -9.78522  -9.78522  -9.78517
 Alpha  occ. eigenvalues --   -9.78517  -9.78517  -9.78517  -9.78517  -9.78487
 Alpha  occ. eigenvalues --   -9.78486  -9.78486  -9.78486  -9.78463  -9.78463
 Alpha  occ. eigenvalues --   -9.78463  -9.78433  -9.78433  -9.78433  -9.78433
 Alpha  occ. eigenvalues --   -9.78433  -9.78399  -9.78399  -9.78399  -9.78380
 Alpha  occ. eigenvalues --   -0.80840  -0.79066  -0.79066  -0.79066  -0.75656
 Alpha  occ. eigenvalues --   -0.75656  -0.75656  -0.75656  -0.75656  -0.71988
 Alpha  occ. eigenvalues --   -0.71988  -0.71987  -0.69333  -0.69333  -0.69333
 Alpha  occ. eigenvalues --   -0.69333  -0.64672  -0.64672  -0.64672  -0.64672
 Alpha  occ. eigenvalues --   -0.64672  -0.63335  -0.63334  -0.63334  -0.63334
 Alpha  occ. eigenvalues --   -0.58385  -0.58385  -0.58384  -0.58384  -0.58384
 Alpha  occ. eigenvalues --   -0.56599  -0.56599  -0.56599  -0.52723  -0.52723
 Alpha  occ. eigenvalues --   -0.52723  -0.49694  -0.49694  -0.49694  -0.49694
 Alpha  occ. eigenvalues --   -0.49693  -0.49450  -0.49450  -0.49449  -0.46150
 Alpha  occ. eigenvalues --   -0.42954  -0.42954  -0.42954  -0.42954  -0.41199
 Alpha  occ. eigenvalues --   -0.41199  -0.41199  -0.41198  -0.41198  -0.39075
 Alpha  occ. eigenvalues --   -0.39075  -0.39075  -0.36890  -0.36890  -0.36890
 Alpha  occ. eigenvalues --   -0.35343  -0.34732  -0.34732  -0.34732  -0.34732
 Alpha  occ. eigenvalues --   -0.33305  -0.33305  -0.33304  -0.32795  -0.32795
 Alpha  occ. eigenvalues --   -0.32795  -0.32795  -0.32794  -0.31838  -0.31838
 Alpha  occ. eigenvalues --   -0.31838  -0.31838  -0.30858  -0.30858  -0.30858
 Alpha  occ. eigenvalues --   -0.29357  -0.29357  -0.29357  -0.29357  -0.29357
 Alpha  occ. eigenvalues --   -0.28881  -0.28881  -0.28881  -0.28880  -0.25100
 Alpha  occ. eigenvalues --   -0.25100  -0.25100  -0.25100  -0.25100  -0.24604
 Alpha  occ. eigenvalues --   -0.24604  -0.24604  -0.24125  -0.24124  -0.24124
 Alpha  occ. eigenvalues --   -0.24124  -0.24124  -0.22733  -0.22733  -0.22733
 Alpha  occ. eigenvalues --   -0.22732  -0.17002  -0.17002  -0.17002  -0.17002
 Alpha  occ. eigenvalues --   -0.17002  -0.16842  -0.16842  -0.16841  -0.16841
 Alpha  occ. eigenvalues --   -0.12848  -0.12847  -0.12847  -0.12847  -0.12847
 Alpha virt. eigenvalues --   -0.05551  -0.05551  -0.05551  -0.02214  -0.02214
 Alpha virt. eigenvalues --   -0.02213   0.02391   0.02391   0.02392   0.02427
 Alpha virt. eigenvalues --    0.02427   0.02427   0.02428   0.02428   0.06922
 Alpha virt. eigenvalues --    0.06922   0.06923   0.06923   0.06923   0.08619
 Alpha virt. eigenvalues --    0.08619   0.08619   0.08620   0.10201   0.10201
 Alpha virt. eigenvalues --    0.10202   0.10202   0.11053   0.11054   0.11054
 Alpha virt. eigenvalues --    0.21457   0.21457   0.21457   0.24393   0.24393
 Alpha virt. eigenvalues --    0.24394   0.27417   0.27418   0.27418   0.27418
 Alpha virt. eigenvalues --    0.27419   0.32218   0.32219   0.32219   0.32219
 Alpha virt. eigenvalues --    0.32625   0.32625   0.32626   0.34117   0.34117
 Alpha virt. eigenvalues --    0.34117   0.34117   0.34118   0.35184   0.35184
 Alpha virt. eigenvalues --    0.35184   0.35184   0.35185   0.37690   0.37690
 Alpha virt. eigenvalues --    0.37691   0.37691   0.40201   0.40202   0.40202
 Alpha virt. eigenvalues --    0.41493   0.41493   0.41494   0.41494   0.41494
 Alpha virt. eigenvalues --    0.41508   0.41508   0.41508   0.46339   0.46339
 Alpha virt. eigenvalues --    0.46340   0.47822   0.47822   0.47822   0.48415
 Alpha virt. eigenvalues --    0.48415   0.48416   0.48416   0.49403   0.49403
 Alpha virt. eigenvalues --    0.49403   0.49404   0.49768   0.49768   0.49769
 Alpha virt. eigenvalues --    0.50843   0.50843   0.50843   0.50844   0.50844
 Alpha virt. eigenvalues --    0.55005   0.55005   0.55006   0.55006   0.55006
 Alpha virt. eigenvalues --    0.57098   0.57098   0.57099   0.57099   0.57099
 Alpha virt. eigenvalues --    0.59054   0.59054   0.59055   0.59055   0.61743
 Alpha virt. eigenvalues --    0.61744   0.61745   0.65202   0.67538   0.67538
 Alpha virt. eigenvalues --    0.67539   0.67539   0.68873   0.68874   0.68874
          Condensed to atoms (all electrons):
 Mulliken charges:
               1
     1  C    0.000000
     2  C   -0.000000
     3  C    0.000001
     4  C    0.000004
     5  C   -0.000001
     6  C   -0.000000
     7  C    0.000002
     8  C    0.000001
     9  C   -0.000001
    10  C    0.000002
    11  C   -0.000002
    12  C   -0.000003
    13  C    0.000001
    14  C    0.000004
    15  C   -0.000002
    16  C   -0.000001
    17  C    0.000001
    18  C   -0.000001
    19  C   -0.000003
    20  C    0.000000
    21  C    0.000001
    22  C    0.000000
    23  C   -0.000003
    24  C    0.000004
    25  C   -0.000004
    26  C    0.000000
    27  C    0.000002
    28  C   -0.000005
    29  C    0.000005
    30  C    0.000002
    31  C   -0.000003
    32  C   -0.000001
    33  C    0.000002
    34  C   -0.000000
    35  C   -0.000000
    36  C   -0.000002
    37  C    0.000001
    38  C    0.000000
    39  C    0.000001
    40  C   -0.000000
    41  C    0.000004
    42  C   -0.000004
    43  C    0.000000
    44  C   -0.000001
    45  C   -0.000002
    46  C   -0.000001
    47  C    0.000004
    48  C    0.000001
    49  C    0.000002
    50  C   -0.000002
    51  C   -0.000002
    52  C    0.000004
    53  C   -0.000004
    54  C    0.000001
    55  C    0.000004
    56  C   -0.000005
    57  C    0.000002
    58  C   -0.000003
    59  C   -0.000002
    60  C   -0.000000
 Sum of Mulliken charges =  -0.00000
 Mulliken charges with hydrogens summed into heavy atoms:
               1
     1  C    0.000000
     2  C   -0.000000
     3  C    0.000001
     4  C    0.000004
     5  C   -0.000001
     6  C   -0.000000
     7  C    0.000002
     8  C    0.000001
     9  C   -0.000001
    10  C    0.000002
    11  C   -0.000002
    12  C   -0.000003
    13  C    0.000001
    14  C    0.000004
    15  C   -0.000002
    16  C   -0.000001
    17  C    0.000001
    18  C   -0.000001
    19  C   -0.000003
    20  C    0.000000
    21  C    0.000001
    22  C    0.000000
    23  C   -0.000003
    24  C    0.000004
    25  C   -0.000004
    26  C    0.000000
    27  C    0.000002
    28  C   -0.000005
    29  C    0.000005
    30  C    0.000002
    31  C   -0.000003
    32  C   -0.000001
    33  C    0.000002
    34  C   -0.000000
    35  C   -0.000000
    36  C   -0.000002
    37  C    0.000001
    38  C    0.000000
    39  C    0.000001
    40  C   -0.000000
    41  C    0.000004
    42  C   -0.000004
    43  C    0.000000
    44  C   -0.000001
    45  C   -0.000002
    46  C   -0.000001
    47  C    0.000004
    48  C    0.000001
    49  C    0.000002
    50  C   -0.000002
    51  C   -0.000002
    52  C    0.000004
    53  C   -0.000004
    54  C    0.000001
    55  C    0.000004
    56  C   -0.000005
    57  C    0.000002
    58  C   -0.000003
    59  C   -0.000002
    60  C   -0.000000
 Electronic spatial extent (au):  <R**2>=          17685.9046
 Charge=             -0.0000 electrons
 Dipole moment (field-independent basis, Debye):
    X=             -0.0000    Y=             -0.0000    Z=             -0.0000  Tot=              0.0000
 Quadrupole moment (field-independent basis, Debye-Ang):
   XX=           -303.1389   YY=           -303.1396   ZZ=           -303.1401
   XY=              0.0002   XZ=              0.0001   YZ=              0.0000
 Traceless Quadrupole moment (field-independent basis, Debye-Ang):
   XX=              0.0006   YY=             -0.0001   ZZ=             -0.0005
   XY=              0.0002   XZ=              0.0001   YZ=              0.0000
 Octapole moment (field-independent basis, Debye-Ang**2):
  XXX=              0.0000  YYY=              0.0000  ZZZ=              0.0001  XYY=             -0.0000
  XXY=             -0.0000  XXZ=             -0.0002  XZZ=             -0.0000  YZZ=             -0.0000
  YYZ=              0.0000  XYZ=             -0.0000
 Hexadecapole moment (field-independent basis, Debye-Ang**3):
 XXXX=          -8222.6307 YYYY=          -8222.5847 ZZZZ=          -8222.4400 XXXY=              0.0011
 XXXZ=              0.0005 YYYX=              0.0029 YYYZ=              0.0007 ZZZX=              0.0012
 ZZZY=             -0.0015 XXYY=          -2740.8674 XXZZ=          -2740.8457 YYZZ=          -2740.8362
 XXYZ=              0.0010 YYXZ=              0.0001 ZZXY=              0.0001
 N-N= 8.126436138267D+03 E-N=-2.147665700913D+04  KE= 2.215276313986D+03
 No NMR shielding tensors so no spin-rotation constants.
 Leave Link  601 at Sun Jan 15 14:33:06 2023, MaxMem=  4026531840 cpu:               3.6 elap:               0.2
 (Enter /software/gaussian/g16-c01/avx2/g16/l9999.exe)
 Unable to Open any file for archive entry.
 1\1\GINC-BHD0002\FOpt\RBLYP\STO-3G\C60\BWEIGHT\15-Jan-2023\0\\#P OPT B
 LYP/STO-3G\\Title Card Required\\0,1\C,-0.6250685929,-0.1132441394,0.0
 727202532\C,0.8646465826,-0.1132076755,0.0726271362\C,1.5791424981,1.1
 244942336,0.0725623873\C,0.8342778825,2.4146325614,0.0726096702\C,-0.5
 948519264,2.4145972363,0.0726645962\C,-1.3396521872,1.1244141123,0.072
 7196973\C,-1.0854131785,-1.2391088911,-0.7873932572\C,0.1197856831,-1.
 934914526,-1.319007344\C,1.3249959558,-1.2390782294,-0.7874566657\C,2.
 4811357723,-1.0814456106,-1.6126520548\C,2.7842786883,1.2887720867,-0.
 7875753835\C,1.5791108367,3.3762610288,-0.7875071179\C,0.8644775301,4.
 2986976159,-1.6126288498\C,-0.6252277239,4.2986049281,-1.6125935558\C,
 -1.3397578906,3.3761245189,-0.7874496952\C,-2.5449195096,2.6802335292,
 -1.3189659046\C,-2.5448433999,1.2886145304,-0.7873656937\C,-2.98651616
 61,0.2085209179,-1.6124317095\C,-2.2416442684,-1.0815923137,-1.6124569
 076\C,0.1197377224,-2.4448811298,-2.6540519333\C,-1.0854982452,-2.2806
 591751,-3.5140918165\C,-2.2416981292,-1.6131652456,-3.0040981984\C,-2.
 986578965,-0.6515657422,-3.8641648733\C,-3.4469113831,0.4743035549,-3.
 0040705049\C,-3.4469914644,1.8093409161,-3.5140636851\C,-2.9865954223,
 2.9351896512,-2.6540014108\C,-2.2418129795,3.8968216167,-3.5140994991\
 C,-1.0856425512,4.5644244848,-3.0042020987\C,2.7842283218,2.6803976855
 ,-1.3191742908\C,1.3246878639,3.5228983011,-5.7309918593\C,2.480917901
 5,3.3653823899,-4.9059289607\C,3.225788931,2.0752713748,-4.9059526858\
 C,2.7841167019,0.9951778356,-5.7310206121\C,1.5789276005,1.1593775539,
 -6.5911056877\C,-0.6253727463,2.3969986484,-6.5910112797\C,-1.08572099
 13,3.5228708185,-5.7309266835\C,0.1194855023,4.2187063771,-5.199377372
 4\C,0.1195333793,4.7286726699,-3.8643331106\C,1.3247724191,4.564450159
 7,-3.0042905795\C,2.4809721737,3.8969562072,-3.5142839144\C,3.68618415
 18,1.8094867984,-3.5143134254\C,3.6862643154,0.4744519327,-3.004320758
 6\C,3.2258669913,-0.6513988684,-3.8643824977\C,2.7841923953,-0.3964427
 956,-5.1994199192\C,1.5790333031,-1.0923327981,-5.7309360149\C,0.83412
 59019,-0.1308061548,-6.5910493883\C,-0.5950038388,-0.1308404337,-6.590
 9925779\C,-1.3398681319,1.159298261,-6.5909449948\C,-2.2418630481,3.36
 52381879,-4.9057308763\C,-2.9866491074,2.0750902724,-4.9057233947\C,-2
 .5450054909,0.9950190506,-5.7308075587\C,-2.5449553695,-0.396604384,-5
 .1992083048\C,-1.339835532,-1.0924694528,-5.7308766792\C,-0.6252037684
 ,-2.0149051403,-4.9057576652\C,0.8645014522,-2.0148143595,-4.905790380
 5\C,1.3249162977,-2.2806321858,-3.5141850444\C,2.4810862228,-1.6130287
 213,-3.0042867362\C,3.2258511532,2.9353590303,-2.6542194432\C,3.225921
 3019,0.2087014489,-1.6126599998\C,0.8643435747,2.3970366456,-6.5911048
 851\\Version=ES64L-G16RevC.01\State=1-A\HF=-2257.2811685\RMSD=4.883e-0
 9\RMSF=1.869e-04\Dipole=0.0000003,0.,0.0000005\Quadrupole=-0.0003774,-
 0.0000185,0.0003959,0.0000896,0.0000409,0.000218\PG=C01 [X(C60)]\\@
 The archive entry for this job was punched.


 BE NOT THE FIRST BY WHOM THE NEW ARE TRIED,
 NOR YET THE THE LAST TO LAY THE OLD ASIDE.

                          -- ALEXANDER POPE
 Job cpu time:       0 days  0 hours 48 minutes 20.4 seconds.
 Elapsed time:       0 days  0 hours  2 minutes  2.6 seconds.
 File lengths (MBytes):  RWF=    304 Int=      0 D2E=      0 Chk=     32 Scr=     32
 Normal termination of Gaussian 16 at Sun Jan 15 14:33:06 2023.
