6
MD Step 0 Units = [Angstroms]
C  -0.33763715 -0.58748864 0.00000000
H  0.19552659 -1.51519357 0.00000000
H  -1.40763715 -0.58748864 0.00000000
C  0.33763715 0.58748865 0.00000000
H  -0.19552659 1.51519357 0.00000000
H  1.40763715 0.58748865 0.00000000
6
MD Step 1 Units = [Angstroms]
C  -0.33800541 -0.58783565 -0.00039529
H  0.19788868 -1.51298548 0.00235358
H  -1.40542209 -0.58520889 0.00235511
C  0.33721637 0.58704698 -0.00039467
H  -0.19318543 1.51768534 0.00235150
H  1.41012105 0.58990686 0.00235305
6
MD Step 2 Units = [Angstroms]
C  -0.33832126 -0.58808948 -0.00079482
H  0.20029799 -1.51106018 0.00473234
H  -1.40350074 -0.58305362 0.00473550
C  0.33674343 0.58650849 -0.00079355
H  -0.19083416 1.52046944 0.00472808
H  1.41283836 0.59248354 0.00473107
6
MD Step 3 Units = [Angstroms]
C  -0.33857304 -0.58824147 -0.00118994
H  0.20270319 -1.50948031 0.00708479
H  -1.40197067 -0.58108054 0.00708991
C  0.33623253 0.58588662 -0.00118791
H  -0.18851807 1.52346479 0.00707787
H  1.41567508 0.59515651 0.00708193
6
MD Step 4 Units = [Angstroms]
C  -0.33876438 -0.58829861 -0.00158656
H  0.20513631 -1.50821530 0.00944595
H  -1.40083348 -0.57926016 0.00945381
C  0.33568356 0.58518129 -0.00158352
H  -0.18619374 1.52667205 0.00943533
H  1.41860200 0.59794950 0.00943968
6
MD Step 5 Units = [Angstroms]
C  -0.33889278 -0.58826190 -0.00198363
H  0.20758474 -1.50726988 0.01180941
H  -1.40012248 -0.57760416 0.01182138
C  0.33510353 0.58440018 -0.00197916
H  -0.18385712 1.53004615 0.01179327
H  1.42154767 0.60084422 0.01179662
6
MD Step 6 Units = [Angstroms]
C  -0.33895803 -0.58813447 -0.00238183
H  0.21004155 -1.50663352 0.01417907
H  -1.39984988 -0.57611537 0.01419721
C  0.33449737 0.58354944 -0.00237530
H  -0.18149047 1.53355014 0.01415462
H  1.42445211 0.60383420 0.01415512
6
MD Step 7 Units = [Angstroms]
C  -0.33895422 -0.58791399 -0.00277549
H  0.21245728 -1.50632503 0.01652098
H  -1.40005315 -0.57483329 0.01654817
C  0.33387633 0.58264183 -0.00276604
H  -0.17911299 1.53710643 0.01648439
H  1.42721713 0.60687508 0.01647951
6
MD Step 8 Units = [Angstroms]
C  -0.33888429 -0.58760698 -0.00316637
H  0.21482544 -1.50631017 0.01884539
H  -1.40071060 -0.57374995 0.01888529
C  0.33324437 0.58168374 -0.00315290
H  -0.17670076 1.54067768 0.01879171
H  1.42979129 0.60996394 0.01877825
6
MD Step 9 Units = [Angstroms]
C  -0.33874383 -0.58721247 -0.00354774
H  0.21708745 -1.50659941 0.02111207
H  -1.40183841 -0.57290639 0.02116921
C  0.33261379 0.58069051 -0.00352893
H  -0.17428075 1.54417519 0.02103521
H  1.43207743 0.61304653 0.02100930
6
MD Step 10 Units = [Angstroms]
C  -0.33853971 -0.58674051 -0.00392302
H  0.21924394 -1.50713796 0.02334139
H  -1.40338002 -0.57228199 0.02342087
C  0.33198642 0.57966761 -0.00389735
H  -0.17182022 1.54757175 0.02323411
H  1.43404553 0.61612902 0.02319138
6
MD Step 11 Units = [Angstroms]
C  -0.33827226 -0.58619432 -0.00428811
H  0.22124999 -1.50791248 0.02550901
H  -1.40531347 -0.57189988 0.02561658
C  0.33137129 0.57862819 -0.00425392
H  -0.16933221 1.55079750 0.02536301
H  1.43562789 0.61917303 0.02529857
6
MD Step 12 Units = [Angstroms]
C  -0.33795151 -0.58558652 -0.00464771
H  0.22311255 -1.50885461 0.02764282
H  -1.40755506 -0.57172993 0.02778434
C  0.33076831 0.57757667 -0.00460315
H  -0.16677918 1.55383760 0.02744877
H  1.43681686 0.62219259 0.02735762
6
MD Step 13 Units = [Angstroms]
C  -0.33757970 -0.58492166 -0.00499789
H  0.22478790 -1.50994512 0.02971982
H  -1.41006462 -0.57179172 0.02990138
C  0.33018556 0.57652593 -0.00494109
H  -0.16417624 1.55662969 0.02946757
H  1.43756171 0.62515101 0.02934442
6
MD Step 14 Units = [Angstroms]
C  -0.33716065 -0.58420554 -0.00533562
H  0.22623837 -1.51115867 0.03172227
H  -1.41279078 -0.57209841 0.03195002
C  0.32962981 0.57548778 -0.00526471
H  -0.16153536 1.55912089 0.03140107
H  1.43782540 0.62801729 0.03124044
6
MD Step 15 Units = [Angstroms]
C  -0.33670119 -0.58344669 -0.00566031
H  0.22744224 -1.51245515 0.03364724
H  -1.41566321 -0.57264731 0.03392697
C  0.32910492 0.57447128 -0.00557350
H  -0.15885611 1.56127796 0.03324582
H  1.43759444 0.63077578 0.03304236
6
MD Step 16 Units = [Angstroms]
C  -0.33621193 -0.58265719 -0.00597483
H  0.22839967 -1.51377496 0.03551210
H  -1.41858883 -0.57341436 0.03584874
C  0.32861083 0.57348169 -0.00587034
H  -0.15612043 1.56309323 0.03501875
H  1.43688452 0.63343169 0.03476769
6
MD Step 17 Units = [Angstroms]
C  -0.33570113 -0.58184654 -0.00627942
H  0.22909754 -1.51507567 0.03731892
H  -1.42148989 -0.57438988 0.03771643
C  0.32814962 0.57252638 -0.00615559
H  -0.15332809 1.56454924 0.03672170
H  1.43570444 0.63597560 0.03641888
6
MD Step 18 Units = [Angstroms]
C  -0.33517308 -0.58102006 -0.00657023
H  0.22950094 -1.51634140 0.03904554
H  -1.42431431 -0.57558731 0.03950730
C  0.32772695 0.57161624 -0.00642570
H  -0.15050562 1.56561018 0.03833272
H  1.43404728 0.63837462 0.03797427
6
MD Step 19 Units = [Angstroms]
C  -0.33463565 -0.58018649 -0.00684703
H  0.22959903 -1.51753766 0.04069142
H  -1.42699114 -0.57699772 0.04121967
C  0.32734436 0.57075796 -0.00668070
H  -0.14766082 1.56626783 0.03985147
H  1.43193612 0.64061817 0.03943435
6
MD Step 20 Units = [Angstroms]
C  -0.33409965 -0.57935741 -0.00711286
H  0.22940254 -1.51861477 0.04227486
H  -1.42943491 -0.57859273 0.04287014
C  0.32699971 0.56995438 -0.00692375
H  -0.14478551 1.56653887 0.04129641
H  1.42942091 0.64271537 0.04081920
6
MD Step 21 Units = [Angstroms]
C  -0.33356732 -0.57853564 -0.00736220
H  0.22887550 -1.51957654 0.04376382
H  -1.43161501 -0.58039257 0.04442724
C  0.32669869 0.56921594 -0.00714990
H  -0.14192365 1.56639657 0.04263635
H  1.42650994 0.64462637 0.04209916
6
MD Step 22 Units = [Angstroms]
C  -0.33303514 -0.57771236 -0.00758739
H  0.22799328 -1.52041516 0.04511284
H  -1.43347870 -0.58239352 0.04584482
C  0.32643777 0.56853926 -0.00735207
H  -0.13915142 1.56582274 0.04382815
H  1.42325132 0.64629280 0.04323314
6
MD Step 23 Units = [Angstroms]
C  -0.33250919 -0.57689412 -0.00778716
H  0.22675642 -1.52111736 0.04631650
H  -1.43498271 -0.58458464 0.04711488
C  0.32621685 0.56792855 -0.00752964
H  -0.13649594 1.56483345 0.04486770
H  1.41970196 0.64770253 0.04421637
6
MD Step 24 Units = [Angstroms]
C  -0.33200116 -0.57609306 -0.00796695
H  0.22520545 -1.52163876 0.04740719
H  -1.43605682 -0.58691887 0.04826675
C  0.32602925 0.56738097 -0.00768812
H  -0.13394716 1.56348799 0.04578821
H  1.41595994 0.64888326 0.04508413
6
MD Step 25 Units = [Angstroms]
C  -0.33151176 -0.57531024 -0.00812136
H  0.22332176 -1.52200262 0.04835455
H  -1.43670237 -0.58941114 0.04926970
C  0.32587846 0.56690337 -0.00782300
H  -0.13155855 1.56178874 0.04656123
H  1.41206562 0.64980151 0.04580799
6
MD Step 26 Units = [Angstroms]
C  -0.33104937 -0.57455442 -0.00825377
H  0.22113975 -1.52218736 0.04917867
H  -1.43687973 -0.59202657 0.05014157
C  0.32575919 0.56649348 -0.00793783
H  -0.12933523 1.55979312 0.04720808
H  1.40811312 0.65047522 0.04641126
6
MD Step 27 Units = [Angstroms]
C  -0.33061733 -0.57382927 -0.00836293
H  0.21867039 -1.52220284 0.04987312
H  -1.43658496 -0.59475663 0.05087507
C  0.32567034 0.56615271 -0.00803200
H  -0.12730959 1.55753659 0.04772409
H  1.40417265 0.65089708 0.04689019
6
MD Step 28 Units = [Angstroms]
C  -0.33022440 -0.57314394 -0.00845416
H  0.21596430 -1.52202691 0.05046881
H  -1.43578645 -0.59755622 0.05149859
C  0.32560440 0.56587559 -0.00811076
H  -0.12547803 1.55509521 0.04814136
H  1.40035229 0.65109784 0.04727935
6
MD Step 29 Units = [Angstroms]
C  -0.32986952 -0.57249766 -0.00852324
H  0.21302007 -1.52169672 0.05094190
H  -1.43451652 -0.60043494 0.05198853
C  0.32556298 0.56566517 -0.00817070
H  -0.12389133 1.55249330 0.04843804
H  1.39670467 0.65105459 0.04755693
6
MD Step 30 Units = [Angstroms]
C  -0.32955413 -0.57189223 -0.00856934
H  0.20985827 -1.52123449 0.05128804
H  -1.43279731 -0.60338317 0.05234011
C  0.32554442 0.56552066 -0.00821147
H  -0.12258122 1.54977686 0.04861148
H  1.39330010 0.65076460 0.04772097
6
MD Step 31 Units = [Angstroms]
C  -0.32927836 -0.57132818 -0.00859109
H  0.20649828 -1.52066987 0.05149961
H  -1.43066302 -0.60639499 0.05254569
C  0.32554768 0.56544136 -0.00823220
H  -0.12158227 1.54698989 0.04865576
H  1.39020195 0.65022257 0.04776582
6
MD Step 32 Units = [Angstroms]
C  -0.32904470 -0.57080847 -0.00859040
H  0.20297976 -1.52001778 0.05158756
H  -1.42813784 -0.60944656 0.05261555
C  0.32556879 0.56542302 -0.00823491
H  -0.12090979 1.54419520 0.04858318
H  1.38748691 0.64944235 0.04770465
6
MD Step 33 Units = [Angstroms]
C  -0.32885288 -0.57033341 -0.00856702
H  0.19933202 -1.51930857 0.05155063
H  -1.42526642 -0.61252642 0.05254865
C  0.32560611 0.56546315 -0.00821967
H  -0.12058982 1.54144292 0.04839387
H  1.38521281 0.64842618 0.04753758
6
MD Step 34 Units = [Angstroms]
C  -0.32870682 -0.56990763 -0.00852598
H  0.19561491 -1.51854592 0.05141711
H  -1.42207167 -0.61559444 0.05237230
C  0.32565343 0.56555412 -0.00819112
H  -0.12061702 1.53881063 0.04811707
H  1.38345809 0.64720622 0.04729489
6
MD Step 35 Units = [Angstroms]
C  -0.32860413 -0.56952964 -0.00846637
H  0.19185615 -1.51776930 0.05118172
H  -1.41861778 -0.61864424 0.05208210
C  0.32571064 0.56569383 -0.00814855
H  -0.12101676 1.53633952 0.04774852
H  1.38225734 0.64578156 0.04697155
6
MD Step 36 Units = [Angstroms]
C  -0.32854179 -0.56919750 -0.00838739
H  0.18808422 -1.51701961 0.05083938
H  -1.41497555 -0.62166988 0.05167410
C  0.32577818 0.56588020 -0.00809122
H  -0.12181091 1.53406669 0.04728391
H  1.38163350 0.64415180 0.04656219
6
MD Step 37 Units = [Angstroms]
C  -0.32851235 -0.56890507 -0.00828414
H  0.18430498 -1.51636116 0.05036228
H  -1.41124414 -0.62468885 0.05112302
C  0.32586089 0.56611509 -0.00801478
H  -0.12304017 1.53200119 0.04669596
H  1.38157416 0.64229424 0.04603711
6
MD Step 38 Units = [Angstroms]
C  -0.32851839 -0.56865654 -0.00816303
H  0.18058730 -1.51579501 0.04978590
H  -1.40746399 -0.62765588 0.05046419
C  0.32595353 0.56638998 -0.00792473
H  -0.12467795 1.53020942 0.04602024
H  1.38211758 0.64024996 0.04543191
6
MD Step 39 Units = [Angstroms]
C  -0.32855599 -0.56844985 -0.00802408
H  0.17696321 -1.51535732 0.04910956
H  -1.40371491 -0.63056238 0.04969859
C  0.32605751 0.56670269 -0.00782083
H  -0.12672877 1.52871452 0.04525600
H  1.38325247 0.63802447 0.04474421
6
MD Step 40 Units = [Angstroms]
C  -0.32861758 -0.56827954 -0.00786379
H  0.17344404 -1.51510197 0.04831315
H  -1.40009803 -0.63341984 0.04880876
C  0.32617805 0.56705472 -0.00769974
H  -0.12921142 1.52751237 0.04438266
H  1.38493487 0.63560443 0.04395089
6
MD Step 41 Units = [Angstroms]
C  -0.32870187 -0.56814669 -0.00768571
H  0.17007853 -1.51504091 0.04741563
H  -1.39667530 -0.63620094 0.04781488
C  0.32631424 0.56744138 -0.00756420
H  -0.13210002 1.52662996 0.04341864
H  1.38714777 0.63301646 0.04306923
6
MD Step 42 Units = [Angstroms]
C  -0.32880488 -0.56804992 -0.00749062
H  0.16689773 -1.51519771 0.04642068
H  -1.39352184 -0.63889424 0.04672254
C  0.32646812 0.56786099 -0.00741456
H  -0.13537844 1.52607050 0.04236685
H  1.38984755 0.63027272 0.04210042
6
MD Step 43 Units = [Angstroms]
C  -0.32892488 -0.56799020 -0.00728174
H  0.16394348 -1.51557820 0.04534529
H  -1.39069593 -0.64147512 0.04555020
C  0.32663973 0.56831006 -0.00725318
H  -0.13901128 1.52584216 0.04124353
H  1.39299358 0.62739976 0.04105956
6
MD Step 44 Units = [Angstroms]
C  -0.32905317 -0.56796178 -0.00705484
H  0.16121292 -1.51622473 0.04416512
H  -1.38829170 -0.64396108 0.04427628
C  0.32683626 0.56879252 -0.00707596
H  -0.14299932 1.52590317 0.04002289
H  1.39649479 0.62438357 0.03991870
6
MD Step 45 Units = [Angstroms]
C  -0.32918813 -0.56796591 -0.00681284
H  0.15873971 -1.51713364 0.04289577
H  -1.38635516 -0.64632946 0.04291797
C  0.32705819 0.56930588 -0.00688510
H  -0.14729777 1.52624448 0.03871964
H  1.40029366 0.62125148 0.03869174
6
MD Step 46 Units = [Angstroms]
C  -0.32933157 -0.56800731 -0.00656148
H  0.15656811 -1.51827816 0.04156726
H  -1.38490400 -0.64854211 0.04150783
C  0.32730354 0.56984595 -0.00668522
H  -0.15184373 1.52686561 0.03736337
H  1.40434570 0.61804527 0.03740964
6
MD Step 47 Units = [Angstroms]
C  -0.32947328 -0.56807866 -0.00629350
H  0.15466676 -1.51969824 0.04013616
H  -1.38401834 -0.65063332 0.04001013
C  0.32758202 0.57042070 -0.00646964
H  -0.15664261 1.52768810 0.03590873
H  1.40853043 0.61473567 0.03603091
6
MD Step 48 Units = [Angstroms]
C  -0.32961054 -0.56817862 -0.00601160
H  0.15305738 -1.52137465 0.03860675
H  -1.38371609 -0.65258054 0.03845034
C  0.32789163 0.57102494 -0.00624043
H  -0.16163380 1.52868403 0.03435961
H  1.41277502 0.61135426 0.03457884
6
MD Step 49 Units = [Angstroms]
C  -0.32973990 -0.56830397 -0.00571839
H  0.15175775 -1.52328279 0.03699757
H  -1.38400897 -0.65436308 0.03683877
C  0.32822963 0.57165160 -0.00599967
H  -0.16674352 1.52981436 0.03273418
H  1.41699119 0.60794101 0.03306234
6
MD Step 50 Units = [Angstroms]
C  -0.32985708 -0.56845178 -0.00541202
H  0.15075337 -1.52541272 0.03530261
H  -1.38490973 -0.65598588 0.03516149
C  0.32859899 0.57230202 -0.00574566
H  -0.17192839 1.53101307 0.03102543
H  1.42107615 0.60450603 0.03146571
6
MD Step 51 Units = [Angstroms]
C  -0.32996683 -0.56862758 -0.00509890
H  0.15007059 -1.52770079 0.03355976
H  -1.38636623 -0.65740700 0.03345126
C  0.32899454 0.57296995 -0.00548400
H  -0.17710039 1.53226028 0.02927191
H  1.42498175 0.60110366 0.02982329
6
MD Step 52 Units = [Angstroms]
C  -0.33006658 -0.56882946 -0.00477630
H  0.14968000 -1.53013199 0.03175578
H  -1.38836379 -0.65863814 0.03169124
C  0.32941959 0.57365873 -0.00521232
H  -0.18222749 1.53348889 0.02745961
H  1.42862090 0.59773556 0.02811800
6
MD Step 53 Units = [Angstroms]
C  -0.33015449 -0.56905576 -0.00444137
H  0.14954862 -1.53268803 0.02987674
H  -1.39087559 -0.65969162 0.02986454
C  0.32987691 0.57437156 -0.00492822
H  -0.18728036 1.53463405 0.02557388
H  1.43191496 0.59440234 0.02633319
6
MD Step 54 Units = [Angstroms]
C  -0.33023729 -0.56931272 -0.00409963
H  0.14968715 -1.53530088 0.02795449
H  -1.39381707 -0.66053290 0.02800021
C  0.33036099 0.57510343 -0.00463676
H  -0.19218449 1.53568058 0.02364758
H  1.43484033 0.59115094 0.02450079
6
MD Step 55 Units = [Angstroms]
C  -0.33031712 -0.56960165 -0.00375131
H  0.15007425 -1.53793045 0.02599134
H  -1.39712475 -0.66115799 0.02609851
C  0.33087073 0.57585401 -0.00433829
H  -0.19689746 1.53658679 0.02168323
H  1.43735121 0.58799844 0.02262288
6
MD Step 56 Units = [Angstroms]
C  -0.33039322 -0.56992057 -0.00339324
H  0.15066775 -1.54055494 0.02397071
H  -1.40074758 -0.66158281 0.02414125
C  0.33140764 0.57662578 -0.00403022
H  -0.20139907 1.53729592 0.01966381
H  1.43939111 0.58494236 0.02068246
6
MD Step 57 Units = [Angstroms]
C  -0.33047004 -0.57027219 -0.00302743
H  0.15145318 -1.54312346 0.02190454
H  -1.40460050 -0.66179473 0.02213910
C  0.33196790 0.57741586 -0.00371459
H  -0.20564335 1.53778542 0.01760188
H  1.44094204 0.58200858 0.01869259
6
MD Step 58 Units = [Angstroms]
C  -0.33055191 -0.57065875 -0.00265572
H  0.15241395 -1.54558719 0.01980353
H  -1.40859678 -0.66178329 0.02010171
C  0.33254740 0.57822106 -0.00339322
H  -0.20958925 1.53803668 0.01550879
H  1.44199373 0.57922104 0.01666529
6
MD Step 59 Units = [Angstroms]
C  -0.33063695 -0.57107605 -0.00227346
H  0.15349683 -1.54793556 0.01764260
H  -1.41268535 -0.66157585 0.01800322
C  0.33314759 0.57904387 -0.00306222
H  -0.21323654 1.53800006 0.01335878
H  1.44250827 0.57656658 0.01457545
6
MD Step 60 Units = [Angstroms]
C  -0.33073367 -0.57152980 -0.00188695
H  0.15470994 -1.55009874 0.01545723
H  -1.41675419 -0.66113881 0.01587834
C  0.33375924 0.57987584 -0.00272742
H  -0.21652741 1.53769358 0.01118871
H  1.44251898 0.57409236 0.01246064
6
MD Step 61 Units = [Angstroms]
C  -0.33084007 -0.57201515 -0.00149182
H  0.15600182 -1.55207035 0.01322358
H  -1.42075423 -0.66050060 0.01370271
C  0.33438272 0.58071821 -0.00238508
H  -0.21946930 1.53708068 0.00897406
H  1.44200737 0.57178446 0.01029689
6
MD Step 62 Units = [Angstroms]
C  -0.33095992 -0.57253275 -0.00108999
H  0.15735748 -1.55381189 0.01095292
H  -1.42460448 -0.65965483 0.01148716
C  0.33501209 0.58156568 -0.00203712
H  -0.22203849 1.53616670 0.00672639
H  1.44099975 0.56966335 0.00809628
6
MD Step 63 Units = [Angstroms]
C  -0.33110087 -0.57308685 -0.00068776
H  0.15878804 -1.55526418 0.00868076
H  -1.42820457 -0.65857118 0.00926684
C  0.33563694 0.58240829 -0.00168934
H  -0.22419127 1.53498789 0.00448223
H  1.43955594 0.56777286 0.00589572
6
MD Step 64 Units = [Angstroms]
C  -0.33126068 -0.57367187 -0.00028166
H  0.16025028 -1.55642787 0.00638812
H  -1.43151528 -0.65727690 0.00702266
C  0.33625576 0.58324498 -0.00133870
H  -0.22594404 1.53353063 0.00222180
H  1.43768754 0.56610062 0.00367562
6
MD Step 65 Units = [Angstroms]
C  -0.33143950 -0.57428450 0.00012880
H  0.16171937 -1.55729146 0.00407261
H  -1.43448739 -0.65578356 0.00475218
C  0.33686399 0.58407142 -0.00098480
H  -0.22730104 1.53180401 -0.00005781
H  1.43543072 0.56464974 0.00143319
6
MD Step 66 Units = [Angstroms]
C  -0.33164285 -0.57492663 0.00053807
H  0.16320636 -1.55781385 0.00176570
H  -1.43704450 -0.65406944 0.00248692
C  0.33745111 0.58487705 -0.00063274
H  -0.22823662 1.52985739 -0.00232479
H  1.43286342 0.56345636 -0.00079981
6
MD Step 67 Units = [Angstroms]
C  -0.33186739 -0.57559137 0.00094922
H  0.16467487 -1.55800838 -0.00054959
H  -1.43916720 -0.65216400 0.00021014
C  0.33801466 0.58565929 -0.00027967
H  -0.22877923 1.52769644 -0.00459725
H  1.43002059 0.56250631 -0.00304167
6
MD Step 68 Units = [Angstroms]
C  -0.33211395 -0.57627592 0.00136045
H  0.16611782 -1.55786595 -0.00286299
H  -1.44081672 -0.65007038 -0.00206762
C  0.33854750 0.58641058 0.00007284
H  -0.22893425 1.52535996 -0.00686552
H  1.42697082 0.56181156 -0.00528304
6
MD Step 69 Units = [Angstroms]
C  -0.33238125 -0.57697542 0.00177162
H  0.16752055 -1.55739229 -0.00517345
H  -1.44197218 -0.64780278 -0.00434494
C  0.33904407 0.58712470 0.00042477
H  -0.22872113 1.52288262 -0.00912955
H  1.42377839 0.56137331 -0.00752426
6
MD Step 70 Units = [Angstroms]
C  -0.33266874 -0.57768574 0.00218129
H  0.16887780 -1.55659112 -0.00747273
H  -1.44261432 -0.64536932 -0.00661309
C  0.33949770 0.58779402 0.00077494
H  -0.22815643 1.52031126 -0.01138205
H  1.42051882 0.56119860 -0.00975858
6
MD Step 71 Units = [Angstroms]
C  -0.33297574 -0.57840276 0.00258766
H  0.17018864 -1.55546926 -0.00975038
H  -1.44273082 -0.64277718 -0.00886115
C  0.33990157 0.58841046 0.00112184
H  -0.22725866 1.51769923 -0.01361370
H  1.41727237 0.56129520 -0.01197728
6
MD Step 72 Units = [Angstroms]
C  -0.33330135 -0.57912225 0.00298864
H  0.17145609 -1.55403701 -0.01199434
H  -1.44231707 -0.64003296 -0.01107650
C  0.34024893 0.58896560 0.00146373
H  -0.22604838 1.51510516 -0.01581363
H  1.41412184 0.56167116 -0.01417012
6
MD Step 73 Units = [Angstroms]
C  -0.33364238 -0.57983790 0.00338403
H  0.17267483 -1.55232034 -0.01420335
H  -1.44138880 -0.63715487 -0.01325735
C  0.34053529 0.58945296 0.00180065
H  -0.22456014 1.51257945 -0.01798209
H  1.41113794 0.56232235 -0.01633801
6
MD Step 74 Units = [Angstroms]
C  -0.33399616 -0.58054417 0.00377261
H  0.17384787 -1.55034372 -0.01637039
H  -1.43996505 -0.63415571 -0.01539617
C  0.34075579 0.58986523 0.00213172
H  -0.22282495 1.51018007 -0.02011356
H  1.40839424 0.56324940 -0.01847599
6
MD Step 75 Units = [Angstroms]
C  -0.33435964 -0.58123542 0.00415311
H  0.17498052 -1.54813570 -0.01848805
H  -1.43807400 -0.63104895 -0.01748503
C  0.34090620 0.59019533 0.00245596
H  -0.22087555 1.50796614 -0.02220209
H  1.40596002 0.56445188 -0.02057869
6
MD Step 76 Units = [Angstroms]
C  -0.33472352 -0.58190014 0.00453016
H  0.17604599 -1.54576277 -0.02058350
H  -1.43578706 -0.62788267 -0.01955106
C  0.34098890 0.59044245 0.00277821
H  -0.21878005 1.50596115 -0.02427690
H  1.40386257 0.56589391 -0.02267533
6
MD Step 77 Units = [Angstroms]
C  -0.33508877 -0.58253743 0.00489781
H  0.17708203 -1.54323129 -0.02262170
H  -1.43312068 -0.62464192 -0.02155861
C  0.34099663 0.59059567 0.00309283
H  -0.21654362 1.50424961 -0.02630400
H  1.40218399 0.56760139 -0.02473241
6
MD Step 78 Units = [Angstroms]
C  -0.33544823 -0.58313873 0.00525792
H  0.17808186 -1.54059627 -0.02461369
H  -1.43014542 -0.62135822 -0.02351883
C  0.34093083 0.59065257 0.00340191
H  -0.21421698 1.50286623 -0.02829602
H  1.40094965 0.56955308 -0.02676232
6
MD Step 79 Units = [Angstroms]
C  -0.33579513 -0.58369635 0.00561169
H  0.17904399 -1.53791045 -0.02656655
H  -1.42693476 -0.61805911 -0.02543907
C  0.34079330 0.59061088 0.00370684
H  -0.21184524 1.50184508 -0.03026139
H  1.40017765 0.57173075 -0.02877291
