6
MD Step 0 Units = [Angstroms / fs]
C  0.00447961 0.00447889 0.00447700
H  0.01545593 0.01546484 0.01546562
H  0.01544604 0.01545106 0.01547177
C  0.00447793 0.00447930 0.00447949
H  0.01545706 0.01543378 0.01545733
H  0.01544979 0.01543999 0.01546351
6
MD Step 1 Units = [Angstroms / fs]
C  0.00471179 0.00487794 0.00449170
H  0.01569310 0.01441671 0.01561636
H  0.01442316 0.01502001 0.01562266
C  0.00429258 0.00411928 0.00449425
H  0.01553525 0.01670169 0.01560783
H  0.01655276 0.01613969 0.01561381
6
MD Step 2 Units = [Angstroms / fs]
C  0.00494074 0.00526396 0.00448803
H  0.01566004 0.01304097 0.01549480
H  0.01293387 0.01428736 0.01550196
C  0.00410832 0.00375486 0.00449085
H  0.01536580 0.01758956 0.01548511
H  0.01713913 0.01652992 0.01549013
6
MD Step 3 Units = [Angstroms / fs]
C  0.00519973 0.00566732 0.00450383
H  0.01580391 0.01181665 0.01555584
H  0.01146179 0.01371383 0.01556525
C  0.00396624 0.00343117 0.00450736
H  0.01540815 0.01853212 0.01554313
H  0.01765460 0.01705879 0.01554585
6
MD Step 4 Units = [Angstroms / fs]
C  0.00546684 0.00606514 0.00452039
H  0.01589705 0.01055448 0.01558464
H  0.00983038 0.01308643 0.01559835
C  0.00384837 0.00313308 0.00452526
H  0.01545593 0.01929634 0.01556620
H  0.01787919 0.01750901 0.01556479
6
MD Step 5 Units = [Angstroms / fs]
C  0.00574535 0.00646065 0.00454372
H  0.01599333 0.00934616 0.01565075
H  0.00815010 0.01247225 0.01567129
C  0.00376030 0.00286865 0.00455071
H  0.01558952 0.01993880 0.01562307
H  0.01788315 0.01795196 0.01561542
6
MD Step 6 Units = [Angstroms / fs]
C  0.00601599 0.00683453 0.00455701
H  0.01586526 0.00800976 0.01554522
H  0.00625888 0.01166184 0.01557569
C  0.00368451 0.00262200 0.00456698
H  0.01560857 0.02024062 0.01550435
H  0.01745918 0.01818172 0.01548786
6
MD Step 7 Units = [Angstroms / fs]
C  0.00629594 0.00720340 0.00458148
H  0.01574620 0.00682506 0.01551319
H  0.00445699 0.01090924 0.01555667
C  0.00364251 0.00241700 0.00459539
H  0.01575792 0.02043347 0.01545472
H  0.01685683 0.01843782 0.01542684
6
MD Step 8 Units = [Angstroms / fs]
C  0.00655581 0.00753811 0.00459288
H  0.01533922 0.00553015 0.01526336
H  0.00250837 0.00993277 0.01532339
C  0.00361000 0.00223239 0.00461155
H  0.01574345 0.02021645 0.01518290
H  0.01579954 0.01842176 0.01514068
6
MD Step 9 Units = [Angstroms / fs]
C  0.00681931 0.00786319 0.00461935
H  0.01497593 0.00448345 0.01513345
H  0.00080012 0.00907499 0.01521259
C  0.00361426 0.00209798 0.00464373
H  0.01590006 0.01992717 0.01502623
H  0.01464744 0.01846917 0.01496770
6
MD Step 10 Units = [Angstroms / fs]
C  0.00706072 0.00815409 0.00463959
H  0.01439740 0.00344640 0.01486891
H  -0.00087776 0.00808561 0.01496998
C  0.00363262 0.00199314 0.00467031
H  0.01596950 0.01931716 0.01473074
H  0.01317331 0.01832551 0.01465349
6
MD Step 11 Units = [Angstroms / fs]
C  0.00730096 0.00843285 0.00467824
H  0.01389632 0.00272616 0.01476514
H  -0.00219098 0.00726356 0.01488898
C  0.00368834 0.00194299 0.00471608
H  0.01624121 0.01869115 0.01459150
H  0.01170179 0.01828658 0.01449489
6
MD Step 12 Units = [Angstroms / fs]
C  0.00751367 0.00867442 0.00471269
H  0.01319899 0.00205846 0.01454851
H  -0.00337911 0.00634010 0.01469651
C  0.00375710 0.00192456 0.00475791
H  0.01643519 0.01778814 0.01433602
H  0.00999087 0.01807967 0.01421858
6
MD Step 13 Units = [Angstroms / fs]
C  0.00769806 0.00887923 0.00474515
H  0.01233178 0.00147292 0.01424355
H  -0.00439126 0.00534418 0.01441632
C  0.00383941 0.00193946 0.00479777
H  0.01656791 0.01664765 0.01398942
H  0.00809730 0.01773041 0.01385016
6
MD Step 14 Units = [Angstroms / fs]
C  0.00785781 0.00905210 0.00478179
H  0.01137157 0.00104423 0.01392347
H  -0.00513423 0.00435320 0.01412016
C  0.00393958 0.00199284 0.00484172
H  0.01670333 0.01536084 0.01362532
H  0.00612849 0.01731376 0.01346436
6
MD Step 15 Units = [Angstroms / fs]
C  0.00800040 0.00920157 0.00483188
H  0.01043657 0.00088332 0.01370112
H  -0.00548211 0.00348405 0.01391860
C  0.00406503 0.00209267 0.00489915
H  0.01694392 0.01406059 0.01335670
H  0.00423228 0.01694468 0.01317613
6
MD Step 16 Units = [Angstroms / fs]
C  0.00811808 0.00932089 0.00488914
H  0.00945808 0.00090906 0.01350051
H  -0.00550588 0.00266499 0.01373543
C  0.00420737 0.00223075 0.00496339
H  0.01720355 0.01269266 0.01310865
H  0.00236750 0.01654973 0.01291056
6
MD Step 17 Units = [Angstroms / fs]
C  0.00819873 0.00939885 0.00494249
H  0.00831005 0.00097821 0.01318672
H  -0.00534335 0.00176530 0.01343698
C  0.00435336 0.00239364 0.00502261
H  0.01733736 0.01114503 0.01274785
H  0.00043320 0.01599686 0.01253307
6
MD Step 18 Units = [Angstroms / fs]
C  0.00825135 0.00944509 0.00500083
H  0.00711182 0.00118948 0.01286961
H  -0.00489358 0.00089791 0.01313097
C  0.00450998 0.00258808 0.00508591
H  0.01744363 0.00955068 0.01238420
H  -0.00142763 0.01539849 0.01215570
6
MD Step 19 Units = [Angstroms / fs]
C  0.00828568 0.00946983 0.00507317
H  0.00598740 0.00164323 0.01266302
H  -0.00405699 0.00017919 0.01292866
C  0.00468438 0.00282077 0.00516279
H  0.01762452 0.00804734 0.01213129
H  -0.00306847 0.01487141 0.01189509
6
MD Step 20 Units = [Angstroms / fs]
C  0.00827958 0.00945175 0.00513746
H  0.00467813 0.00205463 0.01229495
H  -0.00312240 -0.00065707 0.01256535
C  0.00485176 0.00306590 0.00522947
H  0.01760003 0.00638992 0.01172012
H  -0.00472683 0.01414859 0.01147992
6
MD Step 21 Units = [Angstroms / fs]
C  0.00825270 0.00942085 0.00519954
H  0.00326099 0.00248580 0.01177994
H  -0.00200800 -0.00151492 0.01205460
C  0.00499985 0.00330049 0.00529156
H  0.01734786 0.00465434 0.01116793
H  -0.00625956 0.01324137 0.01093115
6
MD Step 22 Units = [Angstroms / fs]
C  0.00820975 0.00938222 0.00526260
H  0.00179983 0.00296193 0.01116152
H  -0.00069752 -0.00234075 0.01143350
C  0.00512968 0.00352447 0.00535226
H  0.01689305 0.00291729 0.01051932
H  -0.00757820 0.01219603 0.01028911
6
MD Step 23 Units = [Angstroms / fs]
C  0.00815849 0.00933355 0.00534380
H  0.00054627 0.00367905 0.01072299
H  0.00096541 -0.00292490 0.01097773
C  0.00527320 0.00377855 0.00543076
H  0.01652961 0.00145666 0.01005389
H  -0.00846144 0.01130751 0.00983617
6
MD Step 24 Units = [Angstroms / fs]
C  0.00807141 0.00924801 0.00541517
H  -0.00083271 0.00426966 0.01011890
H  0.00259714 -0.00361309 0.01035429
C  0.00539958 0.00403000 0.00549609
H  0.01591088 -0.00004932 0.00943022
H  -0.00923645 0.01023834 0.00922466
6
MD Step 25 Units = [Angstroms / fs]
C  0.00797366 0.00915045 0.00549787
H  -0.00205093 0.00498626 0.00962464
H  0.00443443 -0.00413237 0.00983145
C  0.00552967 0.00429836 0.00557187
H  0.01530355 -0.00130638 0.00892115
H  -0.00961370 0.00926768 0.00873555
6
MD Step 26 Units = [Angstroms / fs]
C  0.00785446 0.00903041 0.00557939
H  -0.00324801 0.00565705 0.00908835
H  0.00628933 -0.00463387 0.00926269
C  0.00564911 0.00456730 0.00564414
H  0.01455197 -0.00244689 0.00837690
H  -0.00973168 0.00824888 0.00821488
6
MD Step 27 Units = [Angstroms / fs]
C  0.00773409 0.00890788 0.00567580
H  -0.00420075 0.00647374 0.00872346
H  0.00833641 -0.00490699 0.00885503
C  0.00577419 0.00485136 0.00573134
H  0.01386352 -0.00324307 0.00800876
H  -0.00937224 0.00739848 0.00788040
6
MD Step 28 Units = [Angstroms / fs]
C  0.00758992 0.00876062 0.00576341
H  -0.00519576 0.00712014 0.00823202
H  0.01024157 -0.00524906 0.00832133
C  0.00587933 0.00512247 0.00580653
H  0.01294073 -0.00397874 0.00752212
H  -0.00883154 0.00642319 0.00742778
6
MD Step 29 Units = [Angstroms / fs]
C  0.00743341 0.00859981 0.00584992
H  -0.00611862 0.00768175 0.00771904
H  0.01207155 -0.00555729 0.00776394
C  0.00597270 0.00538666 0.00587865
H  0.01188653 -0.00453987 0.00702076
H  -0.00801132 0.00543062 0.00696347
6
MD Step 30 Units = [Angstroms / fs]
C  0.00726517 0.00842587 0.00593297
H  -0.00698326 0.00811797 0.00716106
H  0.01376721 -0.00585601 0.00716113
C  0.00605210 0.00563935 0.00594519
H  0.01067809 -0.00494257 0.00648127
H  -0.00694538 0.00440038 0.00646251
6
MD Step 31 Units = [Angstroms / fs]
C  0.00709641 0.00824961 0.00601994
H  -0.00767974 0.00851517 0.00666069
H  0.01539611 -0.00604520 0.00661273
C  0.00612617 0.00588687 0.00601505
H  0.00941979 -0.00508158 0.00600499
H  -0.00554932 0.00343739 0.00602876
6
MD Step 32 Units = [Angstroms / fs]
C  0.00692354 0.00806712 0.00610467
H  -0.00827409 0.00878600 0.00614417
H  0.01685159 -0.00619958 0.00604864
C  0.00618938 0.00612121 0.00608131
H  0.00804315 -0.00503057 0.00551842
H  -0.00391998 0.00247068 0.00558517
6
MD Step 33 Units = [Angstroms / fs]
C  0.00676323 0.00789438 0.00619939
H  -0.00859448 0.00908420 0.00577802
H  0.01826747 -0.00615545 0.00563041
C  0.00625663 0.00635495 0.00615893
H  0.00672046 -0.00462870 0.00518629
H  -0.00192264 0.00166834 0.00530086
6
MD Step 34 Units = [Angstroms / fs]
C  0.00660302 0.00771840 0.00628999
H  -0.00881509 0.00922055 0.00538242
H  0.01943389 -0.00609367 0.00518581
C  0.00631453 0.00657225 0.00623149
H  0.00528264 -0.00406479 0.00482931
H  0.00022564 0.00085282 0.00498918
6
MD Step 35 Units = [Angstroms / fs]
C  0.00644624 0.00754164 0.00637672
H  -0.00892445 0.00919479 0.00496511
H  0.02032919 -0.00600869 0.00472341
C  0.00636571 0.00677353 0.00629969
H  0.00374920 -0.00334571 0.00445415
H  0.00248778 0.00003332 0.00465578
6
MD Step 36 Units = [Angstroms / fs]
C  0.00628361 0.00735395 0.00644867
H  -0.00906071 0.00886263 0.00438630
H  0.02078897 -0.00604278 0.00410911
C  0.00640062 0.00694728 0.00635073
H  0.00199502 -0.00263029 0.00392016
H  0.00467541 -0.00092836 0.00415443
6
MD Step 37 Units = [Angstroms / fs]
C  0.00614664 0.00718566 0.00653197
H  -0.00887605 0.00857096 0.00399458
H  0.02114097 -0.00585014 0.00368090
C  0.00645061 0.00712326 0.00641661
H  0.00038392 -0.00159277 0.00357415
H  0.00708610 -0.00168201 0.00384170
6
MD Step 38 Units = [Angstroms / fs]
C  0.00602142 0.00702191 0.00661212
H  -0.00855975 0.00813431 0.00360189
H  0.02118232 -0.00562028 0.00325790
C  0.00650208 0.00728661 0.00648019
H  -0.00125313 -0.00044669 0.00322739
H  0.00948061 -0.00241304 0.00352209
6
MD Step 39 Units = [Angstroms / fs]
C  0.00590002 0.00685366 0.00668024
H  -0.00823086 0.00744299 0.00309328
H  0.02078767 -0.00547085 0.00272916
C  0.00654755 0.00742908 0.00653100
H  -0.00301101 0.00066285 0.00276337
H  0.01169044 -0.00323427 0.00307531
6
MD Step 40 Units = [Angstroms / fs]
C  0.00580166 0.00669916 0.00675244
H  -0.00768127 0.00672039 0.00268268
H  0.02016743 -0.00518934 0.00230310
C  0.00660701 0.00757015 0.00658889
H  -0.00465403 0.00191850 0.00239571
H  0.01387896 -0.00392858 0.00272044
6
MD Step 41 Units = [Angstroms / fs]
C  0.00571986 0.00655105 0.00682211
H  -0.00700543 0.00589309 0.00228369
H  0.01923968 -0.00486401 0.00189618
C  0.00667476 0.00770427 0.00664605
H  -0.00624643 0.00320088 0.00203689
H  0.01591284 -0.00457899 0.00236756
6
MD Step 42 Units = [Angstroms / fs]
C  0.00566200 0.00641604 0.00689559
H  -0.00612951 0.00506116 0.00197996
H  0.01809949 -0.00441232 0.00159037
C  0.00675921 0.00784028 0.00671032
H  -0.00768132 0.00456020 0.00177067
H  0.01783264 -0.00509790 0.00210247
6
MD Step 43 Units = [Angstroms / fs]
C  0.00560852 0.00627381 0.00695526
H  -0.00529823 0.00400986 0.00153894
H  0.01653177 -0.00406963 0.00115820
C  0.00684149 0.00796051 0.00676027
H  -0.00917005 0.00572926 0.00136159
H  0.01936610 -0.00571453 0.00168544
6
MD Step 44 Units = [Angstroms / fs]
C  0.00557632 0.00614128 0.00701718
H  -0.00431498 0.00297165 0.00117027
H  0.01477425 -0.00362592 0.00080487
C  0.00693991 0.00808424 0.00681543
H  -0.01047995 0.00688721 0.00102133
H  0.02069306 -0.00621424 0.00133344
6
MD Step 45 Units = [Angstroms / fs]
C  0.00557223 0.00602510 0.00708951
H  -0.00309349 0.00207657 0.00097461
H  0.01297181 -0.00297811 0.00063216
C  0.00706395 0.00822282 0.00688550
H  -0.01149169 0.00810841 0.00085236
H  0.02189865 -0.00649358 0.00115454
6
MD Step 46 Units = [Angstroms / fs]
C  0.00556124 0.00588965 0.00714212
H  -0.00205155 0.00094881 0.00054718
H  0.01076808 -0.00252952 0.00025121
C  0.00717934 0.00834473 0.00693363
H  -0.01259499 0.00896529 0.00044373
H  0.02256812 -0.00695375 0.00074339
6
MD Step 47 Units = [Angstroms / fs]
C  0.00557089 0.00576682 0.00719755
H  -0.00090288 -0.00009370 0.00016673
H  0.00849455 -0.00197732 -0.00002716
C  0.00730522 0.00846730 0.00698718
H  -0.01346105 0.00973618 0.00007994
H  0.02297759 -0.00728296 0.00042581
6
MD Step 48 Units = [Angstroms / fs]
C  0.00560394 0.00566578 0.00725477
H  0.00034045 -0.00103136 -0.00015124
H  0.00617733 -0.00132156 -0.00021698
C  0.00743255 0.00857808 0.00704486
H  -0.01404290 0.01039032 -0.00022268
H  0.02308031 -0.00745175 0.00018952
6
MD Step 49 Units = [Angstroms / fs]
C  0.00564203 0.00556814 0.00730222
H  0.00150963 -0.00197917 -0.00052272
H  0.00373031 -0.00071383 -0.00049195
C  0.00754973 0.00866868 0.00709237
H  -0.01447174 0.01075503 -0.00058310
H  0.02271977 -0.00759938 -0.00014119
6
MD Step 50 Units = [Angstroms / fs]
C  0.00569941 0.00548668 0.00736083
H  0.00284292 -0.00263808 -0.00068996
H  0.00150284 0.00011031 -0.00058979
C  0.00768326 0.00877052 0.00715438
H  -0.01449608 0.01108981 -0.00073708
H  0.02219863 -0.00747693 -0.00029021
6
MD Step 51 Units = [Angstroms / fs]
C  0.00574943 0.00539481 0.00741026
H  0.00404816 -0.00326192 -0.00092856
H  -0.00071323 0.00087211 -0.00077548
C  0.00780965 0.00886359 0.00720595
H  -0.01440330 0.01112827 -0.00096574
H  0.02128439 -0.00736432 -0.00052947
6
MD Step 52 Units = [Angstroms / fs]
C  0.00578725 0.00528879 0.00744971
H  0.00509529 -0.00385274 -0.00125481
H  -0.00287963 0.00155228 -0.00106205
C  0.00792715 0.00894847 0.00724584
H  -0.01422115 0.01086922 -0.00128533
H  0.02000536 -0.00728073 -0.00086966
6
MD Step 53 Units = [Angstroms / fs]
C  0.00583142 0.00518980 0.00749894
H  0.00622940 -0.00413913 -0.00141488
H  -0.00469135 0.00240929 -0.00119445
C  0.00805575 0.00904565 0.00729752
H  -0.01369857 0.01058206 -0.00143497
H  0.01865418 -0.00697073 -0.00104524
6
MD Step 54 Units = [Angstroms / fs]
C  0.00586700 0.00508445 0.00754616
H  0.00728711 -0.00426496 -0.00156134
H  -0.00626233 0.00328732 -0.00132266
C  0.00818003 0.00914104 0.00734666
H  -0.01299798 0.01012541 -0.00157048
H  0.01710861 -0.00658808 -0.00120977
6
MD Step 55 Units = [Angstroms / fs]
C  0.00588319 0.00496344 0.00758275
H  0.00814960 -0.00433567 -0.00180430
H  -0.00767266 0.00407257 -0.00155458
C  0.00828830 0.00922387 0.00738294
H  -0.01224090 0.00940311 -0.00180437
H  0.01528986 -0.00624465 -0.00147359
6
MD Step 56 Units = [Angstroms / fs]
C  0.00589146 0.00484046 0.00762048
H  0.00896553 -0.00419410 -0.00199061
H  -0.00874382 0.00491847 -0.00173578
C  0.00839168 0.00930523 0.00742033
H  -0.01128403 0.00858920 -0.00197928
H  0.01338937 -0.00578784 -0.00167719
6
MD Step 57 Units = [Angstroms / fs]
C  0.00589127 0.00471660 0.00765949
H  0.00973474 -0.00383780 -0.00211637
H  -0.00945598 0.00582590 -0.00186108
C  0.00848829 0.00938344 0.00745896
H  -0.01013770 0.00770826 -0.00209105
H  0.01144781 -0.00521609 -0.00181536
6
MD Step 58 Units = [Angstroms / fs]
C  0.00586476 0.00457488 0.00768313
H  0.01024244 -0.00348513 -0.00239204
H  -0.01001468 0.00657662 -0.00213983
C  0.00855779 0.00943872 0.00747927
H  -0.00903170 0.00656829 -0.00235549
H  0.00928728 -0.00474472 -0.00210368
6
MD Step 59 Units = [Angstroms / fs]
C  0.00584046 0.00444605 0.00771788
H  0.01083295 -0.00279790 -0.00247540
H  -0.01007375 0.00751434 -0.00222955
C  0.00862778 0.00949763 0.00751249
H  -0.00763500 0.00553903 -0.00242193
H  0.00729171 -0.00403231 -0.00219109
6
MD Step 60 Units = [Angstroms / fs]
C  0.00579148 0.00430343 0.00773780
H  0.01117623 -0.00211945 -0.00269490
H  -0.00997160 0.00830045 -0.00245780
C  0.00866784 0.00953037 0.00752832
H  -0.00629962 0.00431132 -0.00262715
H  0.00516421 -0.00341396 -0.00241487
6
MD Step 61 Units = [Angstroms / fs]
C  0.00573377 0.00416438 0.00775684
H  0.01145753 -0.00127988 -0.00286948
H  -0.00953821 0.00911427 -0.00264318
C  0.00869188 0.00955003 0.00754322
H  -0.00485996 0.00309263 -0.00278602
H  0.00312382 -0.00271150 -0.00259014
6
MD Step 62 Units = [Angstroms / fs]
C  0.00568066 0.00404334 0.00778634
H  0.01182913 -0.00014644 -0.00285319
H  -0.00864385 0.01010028 -0.00263932
C  0.00871089 0.00956680 0.00757046
H  -0.00318679 0.00205571 -0.00274981
H  0.00135415 -0.00178217 -0.00256848
6
MD Step 63 Units = [Angstroms / fs]
C  0.00560881 0.00391682 0.00780265
H  0.01199554 0.00096269 -0.00294403
H  -0.00761168 0.01095044 -0.00274341
C  0.00869764 0.00955367 0.00758278
H  -0.00160125 0.00092249 -0.00282369
H  -0.00041456 -0.00093077 -0.00265583
6
MD Step 64 Units = [Angstroms / fs]
C  0.00552652 0.00379374 0.00781174
H  0.01204143 0.00210944 -0.00306262
H  -0.00638698 0.01173909 -0.00287563
C  0.00865774 0.00951538 0.00758737
H  -0.00004109 -0.00020381 -0.00292702
H  -0.00207188 -0.00008211 -0.00277202
6
MD Step 65 Units = [Angstroms / fs]
C  0.00545191 0.00369301 0.00782902
H  0.01217070 0.00347288 -0.00301313
H  -0.00479984 0.01265987 -0.00283980
C  0.00860702 0.00946663 0.00760193
H  0.00167357 -0.00110160 -0.00286063
H  -0.00338956 0.00095624 -0.00271830
6
MD Step 66 Units = [Angstroms / fs]
C  0.00536447 0.00359370 0.00783298
H  0.01211922 0.00476150 -0.00306430
H  -0.00315149 0.01343431 -0.00290398
C  0.00852150 0.00938324 0.00760220
H  0.00325154 -0.00201983 -0.00289917
H  -0.00461224 0.00190859 -0.00277001
6
MD Step 67 Units = [Angstroms / fs]
C  0.00527866 0.00351066 0.00783535
H  0.01204403 0.00610526 -0.00306656
H  -0.00132340 0.01420745 -0.00291828
C  0.00841356 0.00927634 0.00760166
H  0.00482563 -0.00278544 -0.00289084
H  -0.00556424 0.00291996 -0.00277582
6
MD Step 68 Units = [Angstroms / fs]
C  0.00519212 0.00344139 0.00783188
H  0.01190000 0.00743040 -0.00307185
H  0.00059858 0.01492050 -0.00293427
C  0.00827854 0.00914037 0.00759573
H  0.00632449 -0.00342947 -0.00288916
H  -0.00627601 0.00393237 -0.00278971
6
MD Step 69 Units = [Angstroms / fs]
C  0.00511008 0.00339100 0.00782559
H  0.01173353 0.00875417 -0.00304165
H  0.00261829 0.01560646 -0.00291311
C  0.00811994 0.00897760 0.00758791
H  0.00776888 -0.00389293 -0.00285558
H  -0.00669066 0.00497871 -0.00277359
6
MD Step 70 Units = [Angstroms / fs]
C  0.00503549 0.00336209 0.00781739
H  0.01156426 0.01006644 -0.00296495
H  0.00471074 0.01627142 -0.00284353
C  0.00793935 0.00878836 0.00757933
H  0.00915276 -0.00414644 -0.00277961
H  -0.00678414 0.00606428 -0.00271733
6
MD Step 71 Units = [Angstroms / fs]
C  0.00497138 0.00335723 0.00780835
H  0.01141332 0.01135857 -0.00282955
H  0.00685116 0.01692295 -0.00271311
C  0.00773897 0.00857345 0.00757121
H  0.01047262 -0.00416190 -0.00264947
H  -0.00653738 0.00719554 -0.00260944
6
MD Step 72 Units = [Angstroms / fs]
C  0.00491488 0.00337274 0.00779379
H  0.01123063 0.01255088 -0.00269488
H  0.00894218 0.01749750 -0.00258130
C  0.00751549 0.00832809 0.00755858
H  0.01165497 -0.00398656 -0.00252587
H  -0.00601084 0.00830746 -0.00251060
6
MD Step 73 Units = [Angstroms / fs]
C  0.00487065 0.00341243 0.00777651
H  0.01105751 0.01365650 -0.00252994
H  0.01097790 0.01802425 -0.00241707
C  0.00727387 0.00805560 0.00754445
H  0.01272051 -0.00358029 -0.00237778
H  -0.00518145 0.00942655 -0.00238977
6
MD Step 74 Units = [Angstroms / fs]
C  0.00484167 0.00347824 0.00775775
H  0.01091518 0.01467012 -0.00232235
H  0.01293331 0.01851252 -0.00220810
C  0.00701789 0.00775808 0.00753011
H  0.01367269 -0.00292582 -0.00219293
H  -0.00405224 0.01056003 -0.00223449
6
MD Step 75 Units = [Angstroms / fs]
C  0.00481291 0.00355362 0.00772093
H  0.01060940 0.01537287 -0.00227475
H  0.01456895 0.01875670 -0.00215868
C  0.00673358 0.00742014 0.00749850
H  0.01430225 -0.00222694 -0.00217616
H  -0.00285068 0.01150028 -0.00224775
6
MD Step 76 Units = [Angstroms / fs]
C  0.00481516 0.00366831 0.00769542
H  0.01049807 0.01610276 -0.00203981
H  0.01620157 0.01910779 -0.00191939
C  0.00645411 0.00707309 0.00747956
H  0.01495852 -0.00113916 -0.00197639
H  -0.00125727 0.01259311 -0.00208032
6
MD Step 77 Units = [Angstroms / fs]
C  0.00482917 0.00380112 0.00766071
H  0.01033948 0.01660035 -0.00186612
H  0.01755082 0.01931595 -0.00174135
C  0.00616224 0.00669868 0.00745238
H  0.01539331 0.00007743 -0.00184441
H  0.00044150 0.01358591 -0.00198009
6
MD Step 78 Units = [Angstroms / fs]
C  0.00485767 0.00395300 0.00761840
H  0.01015596 0.01687403 -0.00173739
H  0.01860369 0.01939762 -0.00160903
C  0.00586349 0.00630141 0.00741854
H  0.01562811 0.00142320 -0.00176311
H  0.00221890 0.01449134 -0.00192887
6
MD Step 79 Units = [Angstroms / fs]
C  0.00491117 0.00413261 0.00757849
H  0.01006582 0.01703355 -0.00154106
H  0.01944965 0.01946835 -0.00140918
C  0.00557165 0.00589442 0.00738751
H  0.01578595 0.00299012 -0.00161815
H  0.00414162 0.01541993 -0.00181267
