 Entering Gaussian System, Link 0=g16
 Initial command:
 /software/gaussian/g16-c01/avx/g16/l1.exe "/gpfs/fs2/scratch/bweight/software/SQD/src/NAMD/TEST_POP_FULL/G16/TD_NEW_S1/Gau-22162.inp" -scrdir="/gpfs/fs2/scratch/bweight/software/SQD/src/NAMD/TEST_POP_FULL/G16/TD_NEW_S1/"
 Entering Link 1 = /software/gaussian/g16-c01/avx/g16/l1.exe PID=     22163.
  
 Copyright (c) 1988-2019, Gaussian, Inc.  All Rights Reserved.
  
 This is part of the Gaussian(R) 16 program.  It is based on
 the Gaussian(R) 09 system (copyright 2009, Gaussian, Inc.),
 the Gaussian(R) 03 system (copyright 2003, Gaussian, Inc.),
 the Gaussian(R) 98 system (copyright 1998, Gaussian, Inc.),
 the Gaussian(R) 94 system (copyright 1995, Gaussian, Inc.),
 the Gaussian 92(TM) system (copyright 1992, Gaussian, Inc.),
 the Gaussian 90(TM) system (copyright 1990, Gaussian, Inc.),
 the Gaussian 88(TM) system (copyright 1988, Gaussian, Inc.),
 the Gaussian 86(TM) system (copyright 1986, Carnegie Mellon
 University), and the Gaussian 82(TM) system (copyright 1983,
 Carnegie Mellon University). Gaussian is a federally registered
 trademark of Gaussian, Inc.
  
 This software contains proprietary and confidential information,
 including trade secrets, belonging to Gaussian, Inc.
  
 This software is provided under written license and may be
 used, copied, transmitted, or stored only in accord with that
 written license.
  
 The following legend is applicable only to US Government
 contracts under FAR:
  
                    RESTRICTED RIGHTS LEGEND
  
 Use, reproduction and disclosure by the US Government is
 subject to restrictions as set forth in subparagraphs (a)
 and (c) of the Commercial Computer Software - Restricted
 Rights clause in FAR 52.227-19.
  
 Gaussian, Inc.
 340 Quinnipiac St., Bldg. 40, Wallingford CT 06492
  
  
 ---------------------------------------------------------------
 Warning -- This program may not be used in any manner that
 competes with the business of Gaussian, Inc. or will provide
 assistance to any competitor of Gaussian, Inc.  The licensee
 of this program is prohibited from giving any competitor of
 Gaussian, Inc. access to this program.  By using this program,
 the user acknowledges that Gaussian, Inc. is engaged in the
 business of creating and licensing software in the field of
 computational chemistry and represents and warrants to the
 licensee that it is not a competitor of Gaussian, Inc. and that
 it will not use this program in any manner prohibited above.
 ---------------------------------------------------------------
  

 Cite this work as:
 Gaussian 16, Revision C.01,
 M. J. Frisch, G. W. Trucks, H. B. Schlegel, G. E. Scuseria, 
 M. A. Robb, J. R. Cheeseman, G. Scalmani, V. Barone, 
 G. A. Petersson, H. Nakatsuji, X. Li, M. Caricato, A. V. Marenich, 
 J. Bloino, B. G. Janesko, R. Gomperts, B. Mennucci, H. P. Hratchian, 
 J. V. Ortiz, A. F. Izmaylov, J. L. Sonnenberg, D. Williams-Young, 
 F. Ding, F. Lipparini, F. Egidi, J. Goings, B. Peng, A. Petrone, 
 T. Henderson, D. Ranasinghe, V. G. Zakrzewski, J. Gao, N. Rega, 
 G. Zheng, W. Liang, M. Hada, M. Ehara, K. Toyota, R. Fukuda, 
 J. Hasegawa, M. Ishida, T. Nakajima, Y. Honda, O. Kitao, H. Nakai, 
 T. Vreven, K. Throssell, J. A. Montgomery, Jr., J. E. Peralta, 
 F. Ogliaro, M. J. Bearpark, J. J. Heyd, E. N. Brothers, K. N. Kudin, 
 V. N. Staroverov, T. A. Keith, R. Kobayashi, J. Normand, 
 K. Raghavachari, A. P. Rendell, J. C. Burant, S. S. Iyengar, 
 J. Tomasi, M. Cossi, J. M. Millam, M. Klene, C. Adamo, R. Cammi, 
 J. W. Ochterski, R. L. Martin, K. Morokuma, O. Farkas, 
 J. B. Foresman, and D. J. Fox, Gaussian, Inc., Wallingford CT, 2019.
 
 ******************************************
 Gaussian 16:  ES64L-G16RevC.01  3-Jul-2019
                 2-Feb-2023 
 ******************************************
 %oldchk=../GS_NEW/geometry.chk
 %chk=geometry.chk
 %nprocshared=12
 Will use up to   12 processors via shared memory.
 %mem=30GB
 Copying data from "../GS_NEW/geometry.chk" to current chk file "geometry.chk"
 IOpt=  2 FromEx=T IUOpen= 4 IOptOp= 5 NList=   0 IFRang= 0 IUIn= 4 IUOut= 2.
 ----------------------------------------------------------------------
 # AM1/STO-5G SCF=XQC TD=(singlets,nstates=4,root=1) nosym IOp(9/40=3) 
 guess=read
 ----------------------------------------------------------------------
 1/38=1,172=1/1;
 2/12=2,15=1,17=6,18=5,40=1/2;
 3/5=2,6=5,25=1,41=700000,116=-2/1,2,3,8;
 4/5=1,35=1/1;
 5/5=2,8=3,13=1,35=1,38=6/2,8;
 8/6=1,10=90,107=1,108=4/1;
 9/8=1,40=3,41=4,42=1,48=1,49=10,70=2/14;
 6/7=2,8=2,9=2,10=2/1;
 99/5=1,9=1/99;
 ---------
 MD Step 4
 ---------
 Symbolic Z-matrix:
 Charge =  0 Multiplicity = 1
 C                    -1.03614  -1.17411   0.00172 
 C                     0.31486  -1.14153   0.00277 
 C                     1.01318   0.00026  -0.00156 
 C                     0.31471   1.14183  -0.00237 
 C                    -1.03625   1.1741   -0.00079 
 C                    -1.74277  -0.00001   0.00054 
 H                    -1.6721   -2.0623    0.00384 
 H                     0.77449  -2.11945   0.00531 
 H                     0.77426   2.11978  -0.0028 
 H                    -1.67267   2.06186  -0.00009 
 N                     2.34529   0.00017  -0.00498 
 C                     3.09362  -1.23123  -0.00046 
 H                     4.14507  -1.0242   -0.00186 
 H                     2.82193  -1.83005   0.87741 
 H                     2.82105  -1.83564  -0.87467 
 C                     3.09438   1.23083   0.0047 
 H                     4.14564   1.02347  -0.01494 
 H                     2.80931   1.84422  -0.85998 
 H                     2.8356    1.82164   0.89165 
 C                    -3.20505  -0.00028   0. 
 N                    -4.32004   0.00001  -0.00064 
 
                          Input orientation:                          
 ---------------------------------------------------------------------
 Center     Atomic      Atomic             Coordinates (Angstroms)
 Number     Number       Type             X           Y           Z
 ---------------------------------------------------------------------
      1          6           0       -1.036137   -1.174108    0.001721
      2          6           0        0.314859   -1.141532    0.002769
      3          6           0        1.013182    0.000263   -0.001558
      4          6           0        0.314711    1.141829   -0.002374
      5          6           0       -1.036254    1.174096   -0.000794
      6          6           0       -1.742767   -0.000013    0.000543
      7          1           0       -1.672097   -2.062299    0.003837
      8          1           0        0.774492   -2.119452    0.005312
      9          1           0        0.774259    2.119775   -0.002802
     10          1           0       -1.672674    2.061859   -0.000088
     11          7           0        2.345293    0.000167   -0.004983
     12          6           0        3.093618   -1.231226   -0.000460
     13          1           0        4.145072   -1.024204   -0.001864
     14          1           0        2.821934   -1.830046    0.877406
     15          1           0        2.821053   -1.835644   -0.874674
     16          6           0        3.094381    1.230826    0.004699
     17          1           0        4.145645    1.023474   -0.014943
     18          1           0        2.809311    1.844220   -0.859979
     19          1           0        2.835603    1.821638    0.891652
     20          6           0       -3.205052   -0.000284    0.000002
     21          7           0       -4.320044    0.000009   -0.000635
 ---------------------------------------------------------------------
                    Distance matrix (angstroms):
                    1          2          3          4          5
     1  C    0.000000
     2  C    1.351389   0.000000
     3  C    2.361963   1.338420   0.000000
     4  C    2.681114   2.283366   1.338296   0.000000
     5  C    2.348206   2.680980   2.361795   1.351351   0.000000
     6  C    1.370339   2.353061   2.755951   2.353089   1.370290
     7  H    1.092397   2.189934   3.385988   3.770130   3.298268
     8  H    2.042563   1.080554   2.133123   3.293541   3.758497
     9  H    3.758620   3.293509   2.132936   1.080539   2.042614
    10  H    3.297979   3.769881   3.385853   2.190013   1.092315
    11  N    3.579530   2.329420   1.332115   2.329520   3.579523
    12  C    4.130150   2.780208   2.417598   3.654274   4.779270
    13  H    5.183378   3.832012   3.295188   4.400382   5.628380
    14  H    4.010210   2.743076   2.719226   3.986505   4.968070
    15  H    4.010437   2.744577   2.720529   3.988484   4.970011
    16  C    4.779633   3.654289   2.417791   2.781104   4.131028
    17  H    5.628544   4.400282   3.295370   3.832783   5.184107
    18  H    4.963900   3.985140   2.713512   2.729812   3.996953
    19  H    4.975624   3.990568   2.726985   2.759768   4.025797
    20  C    2.466183   3.700301   4.218235   3.700427   2.466345
    21  N    3.487493   4.773411   5.333226   4.773333   3.487371
                    6          7          8          9         10
     6  C    0.000000
     7  H    2.063499   0.000000
     8  H    3.290690   2.447257   0.000000
     9  H    3.290735   4.845043   4.239235   0.000000
    10  H    2.063063   4.124159   4.844792   2.447619   0.000000
    11  N    4.088064   4.515890   2.638239   2.638350   4.516044
    12  C    4.990642   4.837638   2.483410   4.075370   5.793267
    13  H    5.976255   5.909072   3.544069   4.609445   6.585586
    14  H    4.995439   4.584035   2.244175   4.535287   6.009860
    15  H    4.996398   4.583836   2.245736   4.538156   6.012404
    16  C    4.991291   5.793444   4.075077   2.484604   4.838951
    17  H    5.976718   6.585474   4.609020   3.545175   5.910270
    18  H    4.986293   6.007503   4.538713   2.225336   4.568913
    19  H    5.007390   6.016023   4.534971   2.266732   4.601898
    20  C    1.462285   2.569410   4.508622   4.508833   2.569167
    21  N    2.577277   3.356301   5.517830   5.517729   3.355562
                   11         12         13         14         15
    11  N    0.000000
    12  C    1.440951   0.000000
    13  H    2.070881   1.071641   0.000000
    14  H    2.086978   1.096835   1.781345   0.000000
    15  H    2.086363   1.097207   1.781364   1.752088   0.000000
    16  C    1.440746   2.462057   2.487800   3.194493   3.201756
    17  H    2.070875   2.488099   2.047719   3.269721   3.266226
    18  H    2.084913   3.205928   3.278486   4.064345   3.679912
    19  H    2.088567   3.190989   3.257590   3.651738   4.061505
    20  C    5.550347   6.417824   7.421101   6.359436   6.359838
    21  N    6.665338   7.515206   8.526852   7.424817   7.424879
                   16         17         18         19         20
    16  C    0.000000
    17  H    1.071698   0.000000
    18  H    1.097810   1.781432   0.000000
    19  H    1.096682   1.781907   1.751974   0.000000
    20  C    6.418607   7.421661   6.349357   6.372123   0.000000
    21  N    7.515893   8.527343   7.413993   7.437593   1.114992
                   21
    21  N    0.000000
 Symmetry turned off by external request.
 Stoichiometry    C9H10N2
 Framework group  C1[X(C9H10N2)]
 Deg. of freedom    57
 Full point group                 C1      NOp   1
 Rotational constants (GHZ):           3.6858150           0.5981036           0.5178625
 Standard basis: VSTO-5G (5D, 7F)
    54 basis functions,   324 primitive gaussians,    54 cartesian basis functions
    28 alpha electrons       28 beta electrons
       nuclear repulsion energy       316.1784754995 Hartrees.
 Integral buffers will be    131072 words long.
 Regular integral format.
 Two-electron integral symmetry is turned off.
 Do NDO integrals.
 One-electron integrals computed using PRISM.
 NBasis=    54 RedAO= F EigKep=  0.00D+00  NBF=    54
 NBsUse=    54 1.00D-04 EigRej=  0.00D+00 NBFU=    54
 Initial guess from the checkpoint file:  "geometry.chk"
 B after Tr=     0.000000    0.000000    0.000000
         Rot=    1.000000    0.000000    0.000000    0.000000 Ang=   0.00 deg.
 Keep J ints in memory in canonical form, NReq=867381.
 Overlap will be assumed to be unity.
 Requested convergence on RMS density matrix=1.00D-08 within  32 cycles.
 Requested convergence on MAX density matrix=1.00D-06.
 Requested convergence on             energy=1.00D-06.
 No special actions if energy rises.
 SCF Done:  E(RAM1) =  0.149647472515     A.U. after    2 cycles
            NFock=  1  Conv=0.13D-08     -V/T= 1.0015
 QCSCF skips out because SCF is already converged.
 Range of M.O.s used for correlation:     1    54
 NBasis=    54 NAE=    28 NBE=    28 NFC=     0 NFV=     0
 NROrb=     54 NOA=    28 NOB=    28 NVA=    26 NVB=    26
 Keep J ints in memory in canonical form, NReq=867721.
    16 initial guesses have been made.
 Convergence on wavefunction:    0.001000000000000
 Iteration     1 Dimension    16 NMult     0 NNew     16
 CISAX will form    16 AO SS matrices at one time.
 New state      1 was old state      2
 New state      2 was old state      1
 New state      3 was old state      4
 New state      4 was old state      5
 Iteration     2 Dimension    24 NMult    16 NNew      8
 Iteration     3 Dimension    32 NMult    24 NNew      8
 Iteration     4 Dimension    40 NMult    32 NNew      8
 Iteration     5 Dimension    48 NMult    40 NNew      8
 Iteration     6 Dimension    52 NMult    48 NNew      4
 ***********************************************************************
 Excited states from <AA,BB:AA,BB> singles matrix:
 ***********************************************************************
 
 Ground to excited state transition densities written to RWF  633
 Ground to excited state transition electric dipole moments (Au):
       state          X           Y           Z        Dip. S.      Osc.
         1         0.0014      0.4267     -0.0010      0.1820      0.0162
         2         1.5665     -0.0000     -0.0061      2.4538      0.2235
         3        -0.0451      0.0018     -0.1549      0.0260      0.0025
         4         1.7366     -0.0005      0.0019      3.0158      0.3821
 Ground to excited state transition velocity dipole moments (Au):
       state          X           Y           Z        Dip. S.      Osc.
         1        -0.0002     -0.0876     -0.0000      0.0077      0.0382
         2        -0.2739      0.0000      0.0052      0.0751      0.3662
         3         0.0079     -0.0008      0.1490      0.0223      0.1051
         4        -0.4479      0.0002     -0.0003      0.2006      0.7038
 Ground to excited state transition magnetic dipole moments (Au):
       state          X           Y           Z
         1         0.0002      0.0035      0.4320
         2         0.0001     -0.0255     -0.0002
         3         0.0001     -0.7809     -0.0015
         4         0.0028     -0.0016     -0.0003
 Ground to excited state transition velocity quadrupole moments (Au):
       state          XX          YY          ZZ          XY          XZ          YZ
         1         0.0000     -0.0001     -0.0000     -0.0789     -0.0029     -0.0005
         2        -0.0253     -0.0180     -0.0488     -0.0001      0.0255     -0.0004
         3        -0.0045      0.0010     -0.0025     -0.0031      0.7805      0.0001
         4        -0.2680      0.1701     -0.0524     -0.0003      0.0010      0.0019
 <0|del|b> * <b|rxdel|0> + <0|del|b> * <b|delr+rdel|0>
 Rotatory Strengths (R) in cgs (10**-40 erg-esu-cm/Gauss)
       state          XX          YY          ZZ    R(velocity)    E-M Angle
         1        -1.5253     -0.0512     -0.1346     -0.5704       90.49
         2        -0.0080      0.2554     -0.3450     -0.0325       90.00
         3         1.5600      0.5949      0.0003      0.7184       89.79
         4        -0.0006     -3.8579     -0.7482     -1.5356      148.93
 1/2[<0|r|b>*<b|rxdel|0> + (<0|rxdel|b>*<b|r|0>)*]
 Rotatory Strengths (R) in cgs (10**-40 erg-esu-cm/Gauss)
       state          XX          YY          ZZ     R(length)
         1        -0.0002     -1.0594      0.3000     -0.2532
         2        -0.0689     -0.0006     -0.0010     -0.0235
         3         0.0016      0.9890     -0.1662      0.2748
         4        -3.3941     -0.0006      0.0004     -1.1314
  1/2[<0|del|b>*<b|r|0> + (<0|r|b>*<b|del|0>)*] (Au)
       state          X           Y           Z        Dip. S.   Osc.(frdel)
         1        -0.0000     -0.0374      0.0000      0.0374      0.0249
         2        -0.4291     -0.0000     -0.0000      0.4291      0.2861
         3        -0.0004     -0.0000     -0.0231      0.0234      0.0156
         4        -0.7779     -0.0000     -0.0000      0.7779      0.5186

 Excitation energies and oscillator strengths:
 
 Excited state symmetry could not be determined.
 Excited State   1:      Singlet-?Sym    3.6427 eV  340.36 nm  f=0.0162  <S**2>=0.000
       4 -> 39        -0.00231
       4 -> 42        -0.00196
       4 -> 46        -0.00329
       5 -> 36        -0.00101
       5 -> 45         0.00114
       5 -> 48        -0.00191
       6 -> 46        -0.00101
       7 -> 48        -0.00179
       8 -> 39         0.00474
       8 -> 42         0.00187
       8 -> 46         0.00221
       8 -> 51         0.00143
       9 -> 36         0.00151
      10 -> 36        -0.00202
      10 -> 40        -0.00111
      10 -> 45        -0.00129
      10 -> 48        -0.00124
      10 -> 52        -0.00142
      11 -> 36        -0.00295
      11 -> 44        -0.00140
      11 -> 45         0.00241
      11 -> 48         0.00133
      12 -> 31        -0.00146
      12 -> 34         0.00242
      12 -> 37        -0.00235
      12 -> 39        -0.00188
      12 -> 46        -0.00254
      12 -> 49         0.00109
      13 -> 30        -0.01270
      13 -> 38        -0.00146
      14 -> 36         0.00541
      14 -> 40         0.00249
      14 -> 45        -0.00320
      14 -> 47        -0.00221
      14 -> 48         0.00138
      14 -> 50         0.00188
      14 -> 52        -0.00113
      15 -> 31        -0.00599
      15 -> 34        -0.00348
      15 -> 37        -0.00192
      15 -> 39         0.00440
      15 -> 46         0.00543
      15 -> 49        -0.00169
      15 -> 53        -0.00204
      16 -> 30         0.02068
      16 -> 38         0.00187
      17 -> 30         0.00101
      17 -> 32         0.00114
      17 -> 36         0.00364
      17 -> 44         0.00158
      17 -> 45        -0.00147
      17 -> 48        -0.00101
      17 -> 52        -0.00229
      18 -> 31         0.00207
      18 -> 39         0.00567
      18 -> 46         0.00849
      18 -> 49        -0.00183
      18 -> 53        -0.00232
      19 -> 36         0.00212
      19 -> 44        -0.00112
      19 -> 45        -0.00271
      19 -> 47         0.00410
      19 -> 48        -0.00296
      19 -> 50        -0.00106
      19 -> 52         0.00132
      20 -> 29        -0.00398
      20 -> 33        -0.00350
      20 -> 35         0.00474
      20 -> 41        -0.00308
      21 -> 31        -0.00129
      21 -> 34        -0.00147
      21 -> 37        -0.00151
      21 -> 39         0.00298
      21 -> 42         0.00201
      21 -> 46         0.00143
      21 -> 49        -0.00223
      21 -> 51         0.00185
      22 -> 30         0.05705
      22 -> 38        -0.00225
      23 -> 34         0.00104
      23 -> 37        -0.00203
      23 -> 43        -0.00220
      23 -> 46        -0.00388
      23 -> 49         0.00100
      23 -> 51         0.00182
      23 -> 53         0.00181
      24 -> 32        -0.00223
      24 -> 36        -0.00620
      24 -> 40        -0.00149
      24 -> 47        -0.00160
      24 -> 48         0.00239
      24 -> 52         0.00160
      25 -> 30        -0.00101
      25 -> 31         0.00335
      25 -> 34         0.00196
      25 -> 37        -0.00302
      25 -> 39         0.00986
      25 -> 42         0.00808
      25 -> 43         0.00259
      25 -> 46        -0.00202
      25 -> 49        -0.00567
      25 -> 51         0.00727
      25 -> 53        -0.00363
      26 -> 30        -0.13496
      26 -> 38         0.00175
      27 -> 29         0.33075
      27 -> 33        -0.04193
      27 -> 35        -0.04096
      27 -> 41         0.01022
      28 -> 30         0.60965
      28 -> 31        -0.00195
      28 -> 38         0.00582
       4 <- 39        -0.00183
       4 <- 46        -0.00221
       4 <- 49        -0.00112
       7 <- 36         0.00117
       7 <- 45        -0.00185
       8 <- 39         0.00338
       8 <- 42         0.00117
       8 <- 51         0.00158
       9 <- 50        -0.00106
      10 <- 45        -0.00181
      10 <- 52        -0.00104
      11 <- 36        -0.00192
      11 <- 45         0.00230
      12 <- 34         0.00201
      12 <- 37        -0.00104
      12 <- 46        -0.00168
      12 <- 49         0.00164
      14 <- 36         0.00250
      14 <- 40         0.00125
      14 <- 45        -0.00115
      14 <- 47        -0.00107
      15 <- 31        -0.00270
      15 <- 34        -0.00234
      15 <- 39         0.00182
      15 <- 46         0.00303
      15 <- 49        -0.00195
      16 <- 30         0.00822
      17 <- 36         0.00149
      17 <- 48        -0.00180
      17 <- 52        -0.00133
      18 <- 39         0.00259
      18 <- 46         0.00409
      18 <- 53        -0.00164
      19 <- 36         0.00131
      19 <- 45        -0.00157
      19 <- 47         0.00215
      19 <- 48        -0.00128
      20 <- 41        -0.00154
      21 <- 34        -0.00107
      21 <- 39         0.00118
      21 <- 42         0.00120
      21 <- 49        -0.00162
      22 <- 38        -0.00154
      23 <- 46        -0.00218
      24 <- 32        -0.00154
      24 <- 36        -0.00250
      24 <- 45        -0.00118
      24 <- 48         0.00310
      25 <- 31         0.00122
      25 <- 34         0.00136
      25 <- 37        -0.00131
      25 <- 39         0.00497
      25 <- 42         0.00305
      25 <- 43         0.00138
      25 <- 46        -0.00203
      25 <- 49        -0.00199
      25 <- 51         0.00382
      25 <- 53        -0.00193
      26 <- 30        -0.01841
      26 <- 38         0.00164
      27 <- 29         0.07641
      27 <- 33        -0.02344
      27 <- 35        -0.00276
      27 <- 41         0.00594
      28 <- 30         0.02414
 This state for optimization and/or second-order correction.
 Total Energy, E(TD-HF/TD-DFT) =  0.283513705799    
 Copying the excited state density for this state as the 1-particle RhoCI density.
 
 Excited state symmetry could not be determined.
 Excited State   2:      Singlet-?Sym    3.7179 eV  333.48 nm  f=0.2235  <S**2>=0.000
       1 -> 39         0.00121
       2 -> 31         0.00159
       2 -> 34        -0.00117
       2 -> 46         0.00132
       3 -> 31         0.00122
       4 -> 36         0.00111
       4 -> 45        -0.00144
       4 -> 47        -0.00180
       4 -> 48        -0.00168
       5 -> 31         0.00236
       5 -> 34         0.00183
       5 -> 43         0.00150
       5 -> 49        -0.00134
       6 -> 44         0.00363
       6 -> 52        -0.00185
       7 -> 31         0.00508
       7 -> 34         0.00158
       7 -> 39         0.00161
       7 -> 43        -0.00235
       7 -> 49        -0.00214
       7 -> 51         0.00136
       7 -> 53        -0.00275
       8 -> 36        -0.00306
       8 -> 44        -0.00266
       8 -> 45         0.00275
       8 -> 48         0.00129
       8 -> 50        -0.00182
       9 -> 31         0.01198
       9 -> 39         0.00219
       9 -> 43        -0.00276
       9 -> 46         0.00261
       9 -> 49        -0.00116
       9 -> 51        -0.00124
       9 -> 53        -0.00108
      10 -> 34         0.00195
      10 -> 37         0.00271
      10 -> 42        -0.00172
      10 -> 49        -0.00202
      10 -> 51         0.00218
      10 -> 53         0.00169
      10 -> 54         0.00192
      11 -> 31         0.00173
      11 -> 34        -0.00195
      11 -> 37         0.00795
      11 -> 42        -0.00248
      11 -> 43        -0.00434
      11 -> 46        -0.00124
      11 -> 49         0.00377
      11 -> 51         0.00362
      11 -> 53         0.00965
      12 -> 32        -0.00149
      12 -> 36         0.00609
      12 -> 40        -0.00415
      12 -> 44         0.00399
      12 -> 45        -0.00613
      12 -> 47         0.00507
      12 -> 50         0.00137
      12 -> 52         0.00810
      13 -> 29         0.00173
      13 -> 31         0.00276
      13 -> 33         0.00206
      13 -> 35        -0.00288
      13 -> 41         0.00582
      14 -> 31        -0.00582
      14 -> 34        -0.00188
      14 -> 37         0.00657
      14 -> 39        -0.00388
      14 -> 42         0.00204
      14 -> 43        -0.00284
      14 -> 46         0.00517
      14 -> 51         0.00153
      15 -> 32         0.00192
      15 -> 36        -0.00109
      15 -> 40        -0.00230
      15 -> 45         0.00423
      15 -> 48        -0.00765
      15 -> 52         0.01177
      16 -> 29         0.01057
      16 -> 31        -0.00125
      16 -> 33         0.01606
      16 -> 35        -0.03697
      16 -> 41        -0.01141
      17 -> 31         0.01035
      17 -> 34        -0.00972
      17 -> 37        -0.00695
      17 -> 43         0.00410
      17 -> 46         0.00179
      17 -> 49        -0.00873
      17 -> 51        -0.00212
      17 -> 53        -0.00439
      18 -> 32        -0.00227
      18 -> 36        -0.00392
      18 -> 40        -0.00634
      18 -> 45        -0.00119
      18 -> 47         0.00105
      18 -> 48         0.00848
      18 -> 50         0.00591
      19 -> 31         0.00721
      19 -> 34        -0.00177
      19 -> 37         0.00457
      19 -> 38        -0.00497
      19 -> 39         0.00614
      19 -> 42         0.00600
      19 -> 43        -0.00190
      19 -> 46        -0.00494
      19 -> 49        -0.00641
      19 -> 51        -0.00628
      19 -> 53        -0.00981
      20 -> 30         0.00420
      20 -> 31         0.00114
      20 -> 37         0.00108
      20 -> 38         0.03032
      20 -> 40        -0.00144
      20 -> 49        -0.00108
      20 -> 51        -0.00111
      20 -> 53        -0.00171
      21 -> 32         0.00245
      21 -> 36        -0.00202
      21 -> 40        -0.00246
      21 -> 44        -0.00238
      21 -> 45         0.00567
      21 -> 47        -0.00338
      21 -> 48        -0.00341
      21 -> 50        -0.00249
      21 -> 52         0.00281
      22 -> 29         0.02780
      22 -> 33        -0.05079
      22 -> 35         0.01237
      22 -> 41         0.02111
      23 -> 36         0.00529
      23 -> 40        -0.00911
      23 -> 44        -0.00771
      23 -> 45         0.00582
      23 -> 47        -0.00414
      23 -> 48         0.00200
      23 -> 50        -0.00394
      23 -> 52        -0.00513
      24 -> 31        -0.01383
      24 -> 34         0.01215
      24 -> 37         0.00366
      24 -> 39        -0.00368
      24 -> 42        -0.00151
      24 -> 43        -0.00285
      24 -> 49         0.01220
      24 -> 51         0.00377
      24 -> 53         0.00551
      24 -> 54         0.00248
      25 -> 32        -0.00403
      25 -> 36        -0.01044
      25 -> 40         0.00119
      25 -> 44         0.00353
      25 -> 47        -0.00860
      25 -> 48         0.00258
      25 -> 50        -0.00429
      25 -> 52         0.00757
      26 -> 29        -0.08106
      26 -> 31         0.00898
      26 -> 33        -0.06446
      26 -> 34         0.00180
      26 -> 35         0.05677
      26 -> 41        -0.02429
      27 -> 30        -0.22617
      27 -> 38        -0.00190
      28 -> 29         0.63596
      28 -> 31         0.01930
      28 -> 33        -0.14668
      28 -> 34         0.00142
      28 -> 35         0.03510
      28 -> 41        -0.00486
      28 -> 42        -0.00104
       1 <- 39         0.00295
       1 <- 51         0.00148
       2 <- 31         0.00180
       2 <- 34        -0.00148
       2 <- 46         0.00199
       3 <- 31         0.00130
       4 <- 36         0.00174
       4 <- 45        -0.00275
       4 <- 47        -0.00110
       5 <- 31         0.00183
       5 <- 34         0.00206
       5 <- 43         0.00108
       5 <- 46        -0.00353
       6 <- 44         0.00132
       6 <- 52        -0.00122
       7 <- 31         0.00488
       7 <- 34         0.00116
       7 <- 49        -0.00161
       7 <- 53        -0.00306
       8 <- 36        -0.00334
       8 <- 44        -0.00132
       8 <- 45         0.00199
       8 <- 48         0.00191
       8 <- 50        -0.00242
       8 <- 52         0.00168
       9 <- 31         0.00780
       9 <- 51        -0.00221
       9 <- 53        -0.00123
      10 <- 34         0.00193
      10 <- 37         0.00126
      10 <- 39         0.00111
      10 <- 42        -0.00104
      10 <- 51         0.00256
      10 <- 54         0.00134
      11 <- 31        -0.00111
      11 <- 34        -0.00189
      11 <- 37         0.00432
      11 <- 42        -0.00127
      11 <- 43        -0.00166
      11 <- 46         0.00154
      11 <- 49         0.00234
      11 <- 51         0.00255
      11 <- 53         0.00626
      12 <- 32        -0.00115
      12 <- 36         0.00339
      12 <- 40        -0.00247
      12 <- 44         0.00156
      12 <- 45        -0.00437
      12 <- 47         0.00284
      12 <- 52         0.00390
      13 <- 29        -0.00354
      13 <- 33        -0.00110
      13 <- 35         0.00182
      13 <- 41         0.00108
      14 <- 31        -0.00275
      14 <- 34        -0.00128
      14 <- 37         0.00290
      14 <- 39        -0.00108
      14 <- 42         0.00160
      14 <- 43        -0.00108
      14 <- 46         0.00505
      15 <- 32         0.00128
      15 <- 36        -0.00186
      15 <- 45         0.00361
      15 <- 48        -0.00327
      15 <- 52         0.00713
      16 <- 29        -0.00160
      16 <- 33        -0.00501
      16 <- 35         0.00158
      16 <- 41        -0.00197
      17 <- 31         0.00604
      17 <- 34        -0.00485
      17 <- 37        -0.00324
      17 <- 43         0.00145
      17 <- 49        -0.00383
      17 <- 51        -0.00224
      17 <- 53        -0.00309
      18 <- 36        -0.00269
      18 <- 40        -0.00239
      18 <- 45         0.00127
      18 <- 48         0.00319
      18 <- 50         0.00286
      19 <- 31         0.00501
      19 <- 38        -0.00135
      19 <- 39         0.00183
      19 <- 42         0.00233
      19 <- 46        -0.00395
      19 <- 49        -0.00279
      19 <- 51        -0.00378
      19 <- 53        -0.00575
      20 <- 38         0.00839
      21 <- 32         0.00125
      21 <- 36        -0.00168
      21 <- 44        -0.00106
      21 <- 45         0.00342
      21 <- 47        -0.00168
      21 <- 48        -0.00114
      21 <- 52         0.00206
      22 <- 35        -0.00760
      22 <- 41         0.00466
      23 <- 36         0.00227
      23 <- 40        -0.00329
      23 <- 44        -0.00187
      23 <- 45         0.00161
      23 <- 47        -0.00152
      23 <- 48         0.00110
      23 <- 50        -0.00236
      23 <- 52        -0.00218
      24 <- 31        -0.00721
      24 <- 34         0.00609
      24 <- 37         0.00197
      24 <- 43        -0.00108
      24 <- 49         0.00530
      24 <- 51         0.00342
      24 <- 53         0.00346
      24 <- 54         0.00152
      25 <- 32        -0.00219
      25 <- 36        -0.00572
      25 <- 47        -0.00420
      25 <- 48         0.00289
      25 <- 50        -0.00371
      25 <- 52         0.00453
      26 <- 29        -0.00119
      26 <- 33        -0.00379
      26 <- 35        -0.00132
      26 <- 41        -0.00973
      27 <- 30        -0.04291
      27 <- 38         0.00194
      28 <- 29        -0.01263
      28 <- 31        -0.00143
      28 <- 33         0.00679
      28 <- 35        -0.00319
      28 <- 41        -0.00622
 
 Excited state symmetry could not be determined.
 Excited State   3:      Singlet-?Sym    3.8448 eV  322.47 nm  f=0.0025  <S**2>=0.000
       2 -> 29         0.00113
       5 -> 29         0.00278
       5 -> 33        -0.00168
       7 -> 29        -0.00186
       7 -> 33         0.00208
       7 -> 35        -0.00161
       7 -> 41        -0.00143
       9 -> 29         0.00420
       9 -> 33        -0.00209
       9 -> 35         0.00137
       9 -> 41        -0.00324
      10 -> 29         0.00104
      10 -> 41        -0.00199
      11 -> 29         0.00931
      11 -> 33        -0.00690
      11 -> 35         0.00459
      11 -> 41        -0.00768
      12 -> 38        -0.00725
      13 -> 31         0.08451
      13 -> 34         0.00503
      13 -> 37        -0.00377
      13 -> 39        -0.00179
      13 -> 42        -0.01442
      13 -> 46         0.00603
      13 -> 49         0.00650
      13 -> 53        -0.00982
      13 -> 54        -0.00107
      14 -> 29        -0.00346
      14 -> 33         0.00193
      14 -> 41        -0.00414
      15 -> 38        -0.01003
      16 -> 31        -0.02402
      16 -> 34        -0.00263
      16 -> 35         0.00137
      16 -> 37         0.00397
      16 -> 39         0.00158
      16 -> 42         0.00180
      16 -> 43        -0.00151
      16 -> 51         0.00381
      16 -> 53         0.00437
      17 -> 29        -0.00165
      17 -> 31        -0.00137
      17 -> 33         0.00154
      17 -> 35        -0.00129
      17 -> 41         0.00527
      18 -> 38         0.00488
      19 -> 29        -0.00879
      19 -> 33         0.00542
      19 -> 35        -0.00299
      19 -> 41        -0.00569
      19 -> 44         0.00207
      19 -> 45        -0.00126
      19 -> 47         0.00107
      19 -> 48        -0.00149
      19 -> 52         0.00308
      20 -> 29        -0.00157
      20 -> 40        -0.00485
      20 -> 44        -0.01193
      20 -> 45         0.00736
      20 -> 47        -0.00626
      20 -> 48         0.00866
      20 -> 50        -0.00131
      20 -> 52        -0.01827
      21 -> 38         0.00142
      22 -> 31        -0.00495
      22 -> 33         0.00163
      22 -> 37        -0.00915
      22 -> 39        -0.00173
      22 -> 42         0.00614
      22 -> 43         0.00515
      22 -> 46        -0.00588
      22 -> 49        -0.00560
      22 -> 51        -0.00752
      22 -> 53        -0.00279
      23 -> 38         0.01829
      24 -> 29         0.00389
      24 -> 33        -0.00226
      24 -> 35         0.00141
      24 -> 41        -0.00182
      25 -> 31         0.00202
      25 -> 38        -0.00791
      26 -> 29         0.00396
      26 -> 31         0.26037
      26 -> 33         0.00400
      26 -> 34         0.01895
      26 -> 35        -0.00253
      26 -> 37         0.01594
      26 -> 39        -0.00235
      26 -> 42        -0.03298
      26 -> 43        -0.01462
      26 -> 46         0.01212
      26 -> 49         0.01587
      26 -> 53        -0.01695
      26 -> 54        -0.00131
      27 -> 29         0.00140
      27 -> 30         0.00778
      27 -> 36        -0.01709
      27 -> 40        -0.00519
      27 -> 45         0.00620
      27 -> 47        -0.00412
      27 -> 48        -0.00844
      27 -> 50        -0.00254
      27 -> 52         0.01488
      28 -> 29        -0.01753
      28 -> 30         0.00162
      28 -> 31         0.64559
      28 -> 33         0.00912
      28 -> 34         0.02069
      28 -> 35        -0.00202
      28 -> 37         0.00878
      28 -> 39        -0.00787
      28 -> 41        -0.00133
      28 -> 42        -0.04066
      28 -> 43        -0.01796
      28 -> 46        -0.00131
      28 -> 49         0.00640
      28 -> 51        -0.02036
      28 -> 53        -0.03791
      28 -> 54        -0.00270
       1 <- 29         0.00140
       1 <- 41         0.00109
       2 <- 29         0.00269
       2 <- 33        -0.00132
       2 <- 41         0.00126
       3 <- 29         0.00139
       5 <- 29         0.00170
       5 <- 33        -0.00120
       6 <- 38         0.00175
       7 <- 29        -0.00141
       7 <- 33         0.00120
       9 <- 41        -0.00144
      10 <- 29         0.00119
      11 <- 29         0.00454
      11 <- 33        -0.00475
      11 <- 35         0.00316
      11 <- 41        -0.00331
      12 <- 38        -0.00497
      13 <- 31        -0.01515
      13 <- 37        -0.00170
      13 <- 42         0.00158
      13 <- 46        -0.00160
      13 <- 53         0.00237
      14 <- 29         0.00139
      15 <- 30         0.00261
      15 <- 38        -0.00669
      16 <- 31         0.00320
      16 <- 53        -0.00186
      17 <- 29        -0.00413
      17 <- 33         0.00256
      17 <- 35        -0.00117
      18 <- 30        -0.00168
      18 <- 38         0.00176
      19 <- 29        -0.00676
      19 <- 33         0.00447
      19 <- 35        -0.00219
      20 <- 29        -0.00115
      20 <- 36         0.00345
      20 <- 40        -0.00366
      20 <- 45        -0.00161
      20 <- 47         0.00110
      20 <- 48        -0.00190
      20 <- 52         0.00381
      22 <- 31         0.00158
      22 <- 37         0.00119
      22 <- 46         0.00149
      22 <- 51         0.00208
      22 <- 53         0.00286
      23 <- 38         0.00589
      24 <- 29         0.00604
      24 <- 33        -0.00302
      24 <- 35         0.00152
      25 <- 30        -0.00212
      25 <- 38        -0.00282
      26 <- 31        -0.02451
      26 <- 34        -0.00110
      26 <- 37        -0.00171
      26 <- 42         0.00328
      26 <- 43        -0.00124
      26 <- 46        -0.00314
      26 <- 49        -0.00102
      26 <- 51        -0.00238
      27 <- 30         0.00128
      27 <- 48         0.00112
      28 <- 31        -0.04161
      28 <- 34        -0.00173
      28 <- 42         0.00464
      28 <- 43        -0.00186
      28 <- 46        -0.00211
      28 <- 53         0.00522
 
 Excited state symmetry could not be determined.
 Excited State   4:      Singlet-?Sym    5.1721 eV  239.72 nm  f=0.3821  <S**2>=0.000
       1 -> 51         0.00135
       2 -> 42        -0.00164
       2 -> 46         0.00124
       3 -> 54         0.00102
       4 -> 44        -0.00118
       4 -> 47         0.00157
       5 -> 31         0.00158
       5 -> 34         0.00179
       5 -> 42         0.00345
       5 -> 43         0.00139
       5 -> 46        -0.00107
       5 -> 49         0.00110
       6 -> 36        -0.00190
       6 -> 44         0.00357
       6 -> 52        -0.00104
       7 -> 34         0.00227
       7 -> 37         0.00115
       7 -> 39         0.00289
       7 -> 43        -0.00295
       7 -> 51         0.00212
       8 -> 32         0.00147
       8 -> 36        -0.00529
       8 -> 40        -0.00193
       8 -> 44        -0.00194
       8 -> 48        -0.00256
       8 -> 50         0.00133
       9 -> 31         0.00925
       9 -> 34        -0.00344
       9 -> 42         0.00571
       9 -> 43        -0.00359
       9 -> 49        -0.00109
       9 -> 51        -0.00156
       9 -> 53         0.00206
      10 -> 34        -0.00568
      10 -> 37         0.00254
      10 -> 39         0.00391
      10 -> 51         0.00565
      11 -> 31         0.00425
      11 -> 34         0.00270
      11 -> 37         0.00730
      11 -> 42        -0.00557
      11 -> 43        -0.00393
      11 -> 51         0.00109
      11 -> 53         0.00388
      12 -> 32        -0.00166
      12 -> 36         0.01310
      12 -> 40        -0.00317
      12 -> 44         0.00553
      12 -> 45        -0.00965
      12 -> 47         0.00557
      12 -> 48         0.00291
      13 -> 29         0.01653
      13 -> 33        -0.02770
      13 -> 35         0.02411
      13 -> 41         0.01296
      14 -> 31        -0.00909
      14 -> 34        -0.00799
      14 -> 37         0.01222
      14 -> 42        -0.00306
      14 -> 43        -0.00434
      14 -> 46         0.02231
      14 -> 49        -0.00747
      14 -> 51         0.00163
      14 -> 53        -0.00169
      15 -> 32         0.00733
      15 -> 36        -0.00381
      15 -> 40        -0.00409
      15 -> 45         0.01034
      15 -> 48        -0.01392
      15 -> 50         0.00121
      15 -> 52         0.00890
      16 -> 29        -0.04199
      16 -> 33        -0.02090
      16 -> 34         0.00111
      16 -> 35         0.03486
      16 -> 41        -0.00216
      17 -> 29        -0.00105
      17 -> 31         0.00843
      17 -> 34        -0.01130
      17 -> 35         0.00107
      17 -> 37        -0.00913
      17 -> 42         0.00422
      17 -> 43         0.00265
      17 -> 46         0.00508
      17 -> 49        -0.01525
      17 -> 51        -0.00182
      17 -> 54         0.00194
      18 -> 32        -0.00361
      18 -> 36        -0.00423
      18 -> 40        -0.00695
      18 -> 47        -0.00710
      18 -> 48         0.01153
      18 -> 50         0.01073
      18 -> 52         0.00440
      19 -> 30         0.00120
      19 -> 31         0.00756
      19 -> 37         0.00930
      19 -> 38        -0.00522
      19 -> 42         0.01276
      19 -> 46        -0.01528
      19 -> 49        -0.00257
      19 -> 51        -0.00520
      19 -> 53        -0.00354
      20 -> 30        -0.00770
      20 -> 31         0.00115
      20 -> 37         0.00179
      20 -> 38         0.03068
      20 -> 40        -0.00152
      20 -> 42         0.00208
      20 -> 46        -0.00272
      21 -> 32        -0.01688
      21 -> 36        -0.01203
      21 -> 40        -0.00769
      21 -> 44        -0.00289
      21 -> 45         0.00815
      21 -> 47        -0.00492
      21 -> 48        -0.00400
      21 -> 50        -0.00503
      21 -> 52         0.00582
      22 -> 29         0.00886
      22 -> 33         0.03225
      22 -> 35        -0.04406
      22 -> 41         0.00598
      23 -> 32         0.00498
      23 -> 38        -0.00111
      23 -> 40        -0.01696
      23 -> 44        -0.00674
      23 -> 45         0.00499
      23 -> 47        -0.00286
      23 -> 48         0.00332
      23 -> 50        -0.00518
      23 -> 52        -0.00624
      24 -> 31        -0.01157
      24 -> 34        -0.00127
      24 -> 37         0.00300
      24 -> 42        -0.00416
      24 -> 43        -0.00183
      24 -> 46        -0.00424
      24 -> 49         0.02485
      24 -> 51         0.00572
      24 -> 53        -0.00128
      25 -> 30         0.00105
      25 -> 32        -0.00772
      25 -> 36        -0.04997
      25 -> 38        -0.00115
      25 -> 40        -0.01645
      25 -> 44         0.00456
      25 -> 45        -0.01116
      25 -> 47        -0.01149
      25 -> 48         0.01374
      25 -> 50        -0.00570
      25 -> 52         0.01866
      26 -> 29         0.21079
      26 -> 33        -0.05669
      26 -> 35        -0.01060
      26 -> 41        -0.02338
      27 -> 30         0.61371
      27 -> 38         0.00387
      28 -> 29         0.21572
      28 -> 33        -0.10088
      28 -> 34         0.00198
      28 -> 35         0.08263
      28 -> 36         0.00133
      28 -> 41        -0.02780
       1 <- 31         0.00162
       1 <- 34        -0.00119
       1 <- 39        -0.00107
       1 <- 42         0.00106
       1 <- 49        -0.00268
       2 <- 42        -0.00183
       2 <- 49         0.00123
       3 <- 49         0.00120
       4 <- 32         0.00132
       4 <- 36        -0.00181
       4 <- 44        -0.00119
       4 <- 45         0.00345
       4 <- 47         0.00207
       4 <- 48        -0.00428
       4 <- 50        -0.00154
       5 <- 42         0.00239
       6 <- 36        -0.00161
       6 <- 45         0.00184
       6 <- 48        -0.00215
       7 <- 34         0.00148
       7 <- 39         0.00159
       7 <- 46         0.00102
       7 <- 49         0.00219
       7 <- 53        -0.00213
       8 <- 32         0.00122
       8 <- 36        -0.00259
       8 <- 48        -0.00178
       8 <- 50         0.00157
       9 <- 31         0.00483
       9 <- 34        -0.00211
       9 <- 37        -0.00135
       9 <- 39        -0.00195
       9 <- 42         0.00383
       9 <- 49        -0.00314
       9 <- 51        -0.00124
       9 <- 53         0.00127
      10 <- 34        -0.00244
      10 <- 39         0.00226
      10 <- 46         0.00129
      10 <- 49         0.00147
      10 <- 51         0.00106
      11 <- 34         0.00110
      11 <- 37         0.00243
      11 <- 42        -0.00275
      11 <- 53         0.00242
      12 <- 36         0.00580
      12 <- 40        -0.00104
      12 <- 44         0.00171
      12 <- 45        -0.00542
      12 <- 47         0.00116
      12 <- 48         0.00301
      12 <- 50         0.00215
      13 <- 29         0.00577
      13 <- 35        -0.00165
      14 <- 31        -0.00310
      14 <- 34        -0.00254
      14 <- 37         0.00358
      14 <- 43        -0.00105
      14 <- 46         0.00826
      14 <- 49        -0.00213
      14 <- 51         0.00129
      15 <- 32         0.00186
      15 <- 36        -0.00281
      15 <- 40        -0.00141
      15 <- 44        -0.00116
      15 <- 45         0.00502
      15 <- 48        -0.00690
      15 <- 50        -0.00130
      15 <- 52         0.00318
      16 <- 33         0.00407
      16 <- 35        -0.00250
      16 <- 41        -0.00170
      17 <- 31         0.00422
      17 <- 34        -0.00428
      17 <- 37        -0.00309
      17 <- 42         0.00273
      17 <- 49        -0.00774
      17 <- 51        -0.00184
      18 <- 32        -0.00215
      18 <- 40        -0.00217
      18 <- 45        -0.00331
      18 <- 47        -0.00117
      18 <- 48         0.00722
      18 <- 50         0.00387
      19 <- 31         0.00399
      19 <- 42         0.00424
      19 <- 46        -0.00528
      19 <- 49        -0.00223
      19 <- 51        -0.00239
      19 <- 53        -0.00143
      20 <- 38         0.00337
      21 <- 32        -0.00318
      21 <- 36        -0.00465
      21 <- 40        -0.00201
      21 <- 45         0.00337
      21 <- 47        -0.00133
      21 <- 48        -0.00244
      21 <- 50        -0.00290
      21 <- 52         0.00212
      22 <- 29        -0.01503
      22 <- 33        -0.00158
      22 <- 35         0.00387
      22 <- 41         0.00235
      23 <- 32         0.00144
      23 <- 40        -0.00345
      23 <- 45         0.00213
      23 <- 50        -0.00105
      23 <- 52        -0.00153
      24 <- 31        -0.00519
      24 <- 37         0.00178
      24 <- 42        -0.00250
      24 <- 49         0.01097
      24 <- 51         0.00246
      25 <- 32        -0.00172
      25 <- 36        -0.01260
      25 <- 40        -0.00443
      25 <- 45        -0.00259
      25 <- 47        -0.00330
      25 <- 48         0.00425
      25 <- 52         0.00537
      26 <- 29         0.02032
      26 <- 33        -0.01308
      26 <- 35         0.00259
      26 <- 41        -0.00189
      27 <- 30        -0.04798
      28 <- 29        -0.05760
      28 <- 33         0.01349
      28 <- 35         0.00666
      28 <- 41        -0.00330
 SavETr:  write IOETrn=   770 NScale= 10 NData=  16 NLR=1 NState=    4 LETran=      82.

 **********************************************************************

            Population analysis using the SCF Density.

 **********************************************************************

 Alpha  occ. eigenvalues --   -1.55379  -1.42696  -1.36255  -1.19960  -1.17961
 Alpha  occ. eigenvalues --   -1.08670  -0.99073  -0.86808  -0.83772  -0.73001
 Alpha  occ. eigenvalues --   -0.68183  -0.64093  -0.61656  -0.57451  -0.55773
 Alpha  occ. eigenvalues --   -0.54336  -0.53852  -0.53444  -0.51044  -0.50945
 Alpha  occ. eigenvalues --   -0.49727  -0.49520  -0.48782  -0.47067  -0.43326
 Alpha  occ. eigenvalues --   -0.40988  -0.37570  -0.31554
 Alpha virt. eigenvalues --    0.00846   0.01622   0.07218   0.08337   0.08806
 Alpha virt. eigenvalues --    0.11612   0.11781   0.12837   0.13493   0.14154
 Alpha virt. eigenvalues --    0.14482   0.14519   0.15188   0.15590   0.16052
 Alpha virt. eigenvalues --    0.16098   0.16835   0.16994   0.17629   0.18574
 Alpha virt. eigenvalues --    0.19422   0.20397   0.20779   0.21963   0.23329
 Alpha virt. eigenvalues --    0.25439
          Condensed to atoms (all electrons):
               1          2          3          4          5          6
     1  C    4.048035   0.000000   0.000000   0.000000   0.000000   0.000000
     2  C    0.000000   4.220370   0.000000   0.000000   0.000000   0.000000
     3  C    0.000000   0.000000   3.829640   0.000000   0.000000   0.000000
     4  C    0.000000   0.000000   0.000000   4.220307   0.000000   0.000000
     5  C    0.000000   0.000000   0.000000   0.000000   4.047997   0.000000
     6  C    0.000000   0.000000   0.000000   0.000000   0.000000   4.094630
     7  H    0.000000   0.000000   0.000000   0.000000   0.000000   0.000000
     8  H    0.000000   0.000000   0.000000   0.000000   0.000000   0.000000
     9  H    0.000000   0.000000   0.000000   0.000000   0.000000   0.000000
    10  H    0.000000   0.000000   0.000000   0.000000   0.000000   0.000000
    11  N    0.000000   0.000000   0.000000   0.000000   0.000000   0.000000
    12  C    0.000000   0.000000   0.000000   0.000000   0.000000   0.000000
    13  H    0.000000   0.000000   0.000000   0.000000   0.000000   0.000000
    14  H    0.000000   0.000000   0.000000   0.000000   0.000000   0.000000
    15  H    0.000000   0.000000   0.000000   0.000000   0.000000   0.000000
    16  C    0.000000   0.000000   0.000000   0.000000   0.000000   0.000000
    17  H    0.000000   0.000000   0.000000   0.000000   0.000000   0.000000
    18  H    0.000000   0.000000   0.000000   0.000000   0.000000   0.000000
    19  H    0.000000   0.000000   0.000000   0.000000   0.000000   0.000000
    20  C    0.000000   0.000000   0.000000   0.000000   0.000000   0.000000
    21  N    0.000000   0.000000   0.000000   0.000000   0.000000   0.000000
               7          8          9         10         11         12
     1  C    0.000000   0.000000   0.000000   0.000000   0.000000   0.000000
     2  C    0.000000   0.000000   0.000000   0.000000   0.000000   0.000000
     3  C    0.000000   0.000000   0.000000   0.000000   0.000000   0.000000
     4  C    0.000000   0.000000   0.000000   0.000000   0.000000   0.000000
     5  C    0.000000   0.000000   0.000000   0.000000   0.000000   0.000000
     6  C    0.000000   0.000000   0.000000   0.000000   0.000000   0.000000
     7  H    0.860967   0.000000   0.000000   0.000000   0.000000   0.000000
     8  H    0.000000   0.869020   0.000000   0.000000   0.000000   0.000000
     9  H    0.000000   0.000000   0.869020   0.000000   0.000000   0.000000
    10  H    0.000000   0.000000   0.000000   0.860979   0.000000   0.000000
    11  N    0.000000   0.000000   0.000000   0.000000   5.296033   0.000000
    12  C    0.000000   0.000000   0.000000   0.000000   0.000000   4.059751
    13  H    0.000000   0.000000   0.000000   0.000000   0.000000   0.000000
    14  H    0.000000   0.000000   0.000000   0.000000   0.000000   0.000000
    15  H    0.000000   0.000000   0.000000   0.000000   0.000000   0.000000
    16  C    0.000000   0.000000   0.000000   0.000000   0.000000   0.000000
    17  H    0.000000   0.000000   0.000000   0.000000   0.000000   0.000000
    18  H    0.000000   0.000000   0.000000   0.000000   0.000000   0.000000
    19  H    0.000000   0.000000   0.000000   0.000000   0.000000   0.000000
    20  C    0.000000   0.000000   0.000000   0.000000   0.000000   0.000000
    21  N    0.000000   0.000000   0.000000   0.000000   0.000000   0.000000
              13         14         15         16         17         18
     1  C    0.000000   0.000000   0.000000   0.000000   0.000000   0.000000
     2  C    0.000000   0.000000   0.000000   0.000000   0.000000   0.000000
     3  C    0.000000   0.000000   0.000000   0.000000   0.000000   0.000000
     4  C    0.000000   0.000000   0.000000   0.000000   0.000000   0.000000
     5  C    0.000000   0.000000   0.000000   0.000000   0.000000   0.000000
     6  C    0.000000   0.000000   0.000000   0.000000   0.000000   0.000000
     7  H    0.000000   0.000000   0.000000   0.000000   0.000000   0.000000
     8  H    0.000000   0.000000   0.000000   0.000000   0.000000   0.000000
     9  H    0.000000   0.000000   0.000000   0.000000   0.000000   0.000000
    10  H    0.000000   0.000000   0.000000   0.000000   0.000000   0.000000
    11  N    0.000000   0.000000   0.000000   0.000000   0.000000   0.000000
    12  C    0.000000   0.000000   0.000000   0.000000   0.000000   0.000000
    13  H    0.910631   0.000000   0.000000   0.000000   0.000000   0.000000
    14  H    0.000000   0.927332   0.000000   0.000000   0.000000   0.000000
    15  H    0.000000   0.000000   0.926666   0.000000   0.000000   0.000000
    16  C    0.000000   0.000000   0.000000   4.059753   0.000000   0.000000
    17  H    0.000000   0.000000   0.000000   0.000000   0.910571   0.000000
    18  H    0.000000   0.000000   0.000000   0.000000   0.000000   0.926694
    19  H    0.000000   0.000000   0.000000   0.000000   0.000000   0.000000
    20  C    0.000000   0.000000   0.000000   0.000000   0.000000   0.000000
    21  N    0.000000   0.000000   0.000000   0.000000   0.000000   0.000000
              19         20         21
     1  C    0.000000   0.000000   0.000000
     2  C    0.000000   0.000000   0.000000
     3  C    0.000000   0.000000   0.000000
     4  C    0.000000   0.000000   0.000000
     5  C    0.000000   0.000000   0.000000
     6  C    0.000000   0.000000   0.000000
     7  H    0.000000   0.000000   0.000000
     8  H    0.000000   0.000000   0.000000
     9  H    0.000000   0.000000   0.000000
    10  H    0.000000   0.000000   0.000000
    11  N    0.000000   0.000000   0.000000
    12  C    0.000000   0.000000   0.000000
    13  H    0.000000   0.000000   0.000000
    14  H    0.000000   0.000000   0.000000
    15  H    0.000000   0.000000   0.000000
    16  C    0.000000   0.000000   0.000000
    17  H    0.000000   0.000000   0.000000
    18  H    0.000000   0.000000   0.000000
    19  H    0.927398   0.000000   0.000000
    20  C    0.000000   4.077380   0.000000
    21  N    0.000000   0.000000   5.056825
 Mulliken charges:
               1
     1  C   -0.048035
     2  C   -0.220370
     3  C    0.170360
     4  C   -0.220307
     5  C   -0.047997
     6  C   -0.094630
     7  H    0.139033
     8  H    0.130980
     9  H    0.130980
    10  H    0.139021
    11  N   -0.296033
    12  C   -0.059751
    13  H    0.089369
    14  H    0.072668
    15  H    0.073334
    16  C   -0.059753
    17  H    0.089429
    18  H    0.073306
    19  H    0.072602
    20  C   -0.077380
    21  N   -0.056825
 Sum of Mulliken charges =   0.00000
 Mulliken charges with hydrogens summed into heavy atoms:
               1
     1  C    0.090997
     2  C   -0.089390
     3  C    0.170360
     4  C   -0.089327
     5  C    0.091024
     6  C   -0.094630
    11  N   -0.296033
    12  C    0.175620
    16  C    0.175584
    20  C   -0.077380
    21  N   -0.056825
 Charge=              0.0000 electrons
 Dipole moment (field-independent basis, Debye):
    X=              5.5082    Y=             -0.0007    Z=              0.0179  Tot=              5.5083
 N-N= 3.161784754995D+02 E-N=-4.939691840785D+02  KE=-9.723072923906D+01

 Test job not archived.
 1\1\GINC-BHG0001\SP\RAM1 TD-Full\STO-5G\C9H10N2\BWEIGHT\02-Feb-2023\0\
 \# AM1/STO-5G SCF=XQC TD=(singlets,nstates=4,root=1) nosym IOp(9/40=3)
  guess=read\\MD Step 4\\0,1\C,0,-1.03613662,-1.17410845,0.00172068\C,0
 ,0.31485925,-1.14153163,0.00276884\C,0,1.01318232,0.00026317,-0.001557
 54\C,0,0.31471052,1.141829,-0.00237387\C,0,-1.03625394,1.17409629,-0.0
 0079406\C,0,-1.74276737,-0.00001312,0.0005434\H,0,-1.67209739,-2.06229
 854,0.00383722\H,0,0.77449204,-2.11945213,0.00531178\H,0,0.7742591,2.1
 1977534,-0.00280183\H,0,-1.67267358,2.06185894,-0.0000883\N,0,2.345292
 7,0.00016734,-0.00498312\C,0,3.09361821,-1.2312255,-0.00045981\H,0,4.1
 4507169,-1.02420355,-0.00186404\H,0,2.82193394,-1.83004646,0.8774055\H
 ,0,2.82105257,-1.83564362,-0.87467379\C,0,3.09438131,1.23082583,0.0046
 9925\H,0,4.1456449,1.02347353,-0.01494287\H,0,2.80931126,1.84422047,-0
 .85997906\H,0,2.83560274,1.82163769,0.89165226\C,0,-3.2050521,-0.00028
 437,0.00000236\N,0,-4.32004407,0.00000912,-0.00063527\\Version=ES64L-G
 16RevC.01\HF=0.1496475\RMSD=1.256e-09\PG=C01 [X(C9H10N2)]\\@


 GOD GAVE US TWO ENDS... ONE TO SIT ON...    
 AND THE OTHER TO THINK WITH...              
 YOUR SUCCESS DEPENDS UPON WHICH END YOU     
 USE THE MOST...                             
                                             
 IT'S A CASE OF HEADS YOU WIN TAILS YOU LOSE.
          SOURCE UNKNOWN(IT'S JUST AS WELL.) 
 Job cpu time:       0 days  0 hours  0 minutes 28.1 seconds.
 Elapsed time:       0 days  0 hours  0 minutes  3.2 seconds.
 File lengths (MBytes):  RWF=   1312 Int=      0 D2E=      0 Chk=     32 Scr=     32
 Normal termination of Gaussian 16 at Thu Feb  2 19:07:44 2023.
