 Entering Gaussian System, Link 0=g16
 Initial command:
 /software/gaussian/g16-c01/avx/g16/l1.exe "/gpfs/fs2/scratch/bweight/software/many_molecule_many_mode_NAMD/src/WFN_OVERLAP/PYTHON/G16_EXAMPLE/GAU_TMP/Gau-15278.inp" -scrdir="/gpfs/fs2/scratch/bweight/software/many_molecule_many_mode_NAMD/src/WFN_OVERLAP/PYTHON/G16_EXAMPLE/GAU_TMP/"
 Entering Link 1 = /software/gaussian/g16-c01/avx/g16/l1.exe PID=     15279.
  
 Copyright (c) 1988-2019, Gaussian, Inc.  All Rights Reserved.
  
 This is part of the Gaussian(R) 16 program.  It is based on
 the Gaussian(R) 09 system (copyright 2009, Gaussian, Inc.),
 the Gaussian(R) 03 system (copyright 2003, Gaussian, Inc.),
 the Gaussian(R) 98 system (copyright 1998, Gaussian, Inc.),
 the Gaussian(R) 94 system (copyright 1995, Gaussian, Inc.),
 the Gaussian 92(TM) system (copyright 1992, Gaussian, Inc.),
 the Gaussian 90(TM) system (copyright 1990, Gaussian, Inc.),
 the Gaussian 88(TM) system (copyright 1988, Gaussian, Inc.),
 the Gaussian 86(TM) system (copyright 1986, Carnegie Mellon
 University), and the Gaussian 82(TM) system (copyright 1983,
 Carnegie Mellon University). Gaussian is a federally registered
 trademark of Gaussian, Inc.
  
 This software contains proprietary and confidential information,
 including trade secrets, belonging to Gaussian, Inc.
  
 This software is provided under written license and may be
 used, copied, transmitted, or stored only in accord with that
 written license.
  
 The following legend is applicable only to US Government
 contracts under FAR:
  
                    RESTRICTED RIGHTS LEGEND
  
 Use, reproduction and disclosure by the US Government is
 subject to restrictions as set forth in subparagraphs (a)
 and (c) of the Commercial Computer Software - Restricted
 Rights clause in FAR 52.227-19.
  
 Gaussian, Inc.
 340 Quinnipiac St., Bldg. 40, Wallingford CT 06492
  
  
 ---------------------------------------------------------------
 Warning -- This program may not be used in any manner that
 competes with the business of Gaussian, Inc. or will provide
 assistance to any competitor of Gaussian, Inc.  The licensee
 of this program is prohibited from giving any competitor of
 Gaussian, Inc. access to this program.  By using this program,
 the user acknowledges that Gaussian, Inc. is engaged in the
 business of creating and licensing software in the field of
 computational chemistry and represents and warrants to the
 licensee that it is not a competitor of Gaussian, Inc. and that
 it will not use this program in any manner prohibited above.
 ---------------------------------------------------------------
  

 Cite this work as:
 Gaussian 16, Revision C.01,
 M. J. Frisch, G. W. Trucks, H. B. Schlegel, G. E. Scuseria, 
 M. A. Robb, J. R. Cheeseman, G. Scalmani, V. Barone, 
 G. A. Petersson, H. Nakatsuji, X. Li, M. Caricato, A. V. Marenich, 
 J. Bloino, B. G. Janesko, R. Gomperts, B. Mennucci, H. P. Hratchian, 
 J. V. Ortiz, A. F. Izmaylov, J. L. Sonnenberg, D. Williams-Young, 
 F. Ding, F. Lipparini, F. Egidi, J. Goings, B. Peng, A. Petrone, 
 T. Henderson, D. Ranasinghe, V. G. Zakrzewski, J. Gao, N. Rega, 
 G. Zheng, W. Liang, M. Hada, M. Ehara, K. Toyota, R. Fukuda, 
 J. Hasegawa, M. Ishida, T. Nakajima, Y. Honda, O. Kitao, H. Nakai, 
 T. Vreven, K. Throssell, J. A. Montgomery, Jr., J. E. Peralta, 
 F. Ogliaro, M. J. Bearpark, J. J. Heyd, E. N. Brothers, K. N. Kudin, 
 V. N. Staroverov, T. A. Keith, R. Kobayashi, J. Normand, 
 K. Raghavachari, A. P. Rendell, J. C. Burant, S. S. Iyengar, 
 J. Tomasi, M. Cossi, J. M. Millam, M. Klene, C. Adamo, R. Cammi, 
 J. W. Ochterski, R. L. Martin, K. Morokuma, O. Farkas, 
 J. B. Foresman, and D. J. Fox, Gaussian, Inc., Wallingford CT, 2019.
 
 ******************************************
 Gaussian 16:  ES64L-G16RevC.01  3-Jul-2019
                26-Dec-2022 
 ******************************************
 %chk=geometry.chk
 %mem=4GB
 %nprocshared=1
 Will use up to    1 processors via shared memory.
 -----------------------------------------------------------
 # FORCE TD=(singlets,nstates=5) BLYP/STO-3G nosymm pop=full
 -----------------------------------------------------------
 1/10=7,30=1,38=1/1,3;
 2/12=2,15=1,17=6,18=5,40=1/2;
 3/6=3,11=9,25=1,30=1,71=1,74=402/1,2,3,8;
 4//1;
 5/5=2,38=5/2;
 8/6=1,10=1,108=5/1;
 9/15=2,41=5,42=1,48=1,70=2/14;
 10/5=4,31=1/2;
 6/7=3,18=1/1;
 7/12=6,13=5,29=1,30=1/1,2,3,16;
 1/10=7,30=1/3;
 99//99;
 -------
 TitleMe
 -------
 Symbolic Z-matrix:
 Charge =  0 Multiplicity = 1
 c                    -0.70835   0.00004  -0.00051 
 c                    -0.01642  -1.22205  -0.00225 
 c                     1.38059  -1.22222  -0.00797 
 c                     2.09915  -0.00001  -0.0039 
 c                     1.3806    1.22218  -0.00794 
 c                    -0.01644   1.22209  -0.00217 
 h                    -0.56025  -2.17189  -0.00101 
 h                     1.91125  -2.18006  -0.00718 
 h                     1.91118   2.18008  -0.00721 
 h                    -0.56021   2.17197  -0.00079 
 n                     3.4777   -0.00003   0.06195 
 h                     3.98382  -0.89338  -0.15959 
 h                     3.9838    0.89347  -0.15898 
 n                    -2.16283  0.         0.00145 
 o                    -2.78458   1.06508   0.00161 
 o                    -2.78459  -1.06512   0.00181 
 

 GradGradGradGradGradGradGradGradGradGradGradGradGradGradGradGradGradGrad
 Berny optimization.
 Initialization pass.
 Trust Radius=3.00D-01 FncErr=1.00D-07 GrdErr=1.00D-07 EigMax=2.50D+02 EigMin=1.00D-04
 Number of steps in this run=      2 maximum allowed number of steps=      2.
 GradGradGradGradGradGradGradGradGradGradGradGradGradGradGradGradGradGrad

                          Input orientation:                          
 ---------------------------------------------------------------------
 Center     Atomic      Atomic             Coordinates (Angstroms)
 Number     Number       Type             X           Y           Z
 ---------------------------------------------------------------------
      1          6           0       -0.708352    0.000037   -0.000509
      2          6           0       -0.016420   -1.222055   -0.002246
      3          6           0        1.380591   -1.222220   -0.007971
      4          6           0        2.099146   -0.000011   -0.003900
      5          6           0        1.380598    1.222185   -0.007940
      6          6           0       -0.016435    1.222095   -0.002166
      7          1           0       -0.560253   -2.171893   -0.001006
      8          1           0        1.911251   -2.180061   -0.007176
      9          1           0        1.911184    2.180076   -0.007214
     10          1           0       -0.560206    2.171966   -0.000787
     11          7           0        3.477700   -0.000030    0.061953
     12          1           0        3.983821   -0.893378   -0.159588
     13          1           0        3.983803    0.893475   -0.158983
     14          7           0       -2.162827   -0.000001    0.001447
     15          8           0       -2.784585    1.065079    0.001608
     16          8           0       -2.784592   -1.065117    0.001810
 ---------------------------------------------------------------------
                    Distance matrix (angstroms):
                    1          2          3          4          5
     1  C    0.000000
     2  C    1.404379   0.000000
     3  C    2.420259   1.397023   0.000000
     4  C    2.807500   2.443157   1.417791   0.000000
     5  C    2.420210   2.815315   2.444405   1.417777   0.000000
     6  C    1.404342   2.444150   2.815385   2.443201   1.397046
     7  H    2.176973   1.094508   2.160742   3.433582   3.909823
     8  H    3.408107   2.152607   1.095016   2.188135   3.443381
     9  H    3.408018   3.910265   3.443421   2.188177   1.095024
    10  H    2.176976   3.437308   3.909891   3.433606   2.160754
    11  N    4.186518   3.702208   2.428272   1.380126   2.428277
    12  H    4.779120   4.016804   2.628294   2.091493   3.357882
    13  H    4.779087   4.527893   3.357928   2.091483   2.628220
    14  N    1.454476   2.469917   3.748296   4.261977   3.748292
    15  O    2.333466   3.590784   4.751897   4.998527   4.168156
    16  O    2.333523   2.772620   4.168157   4.998538   4.751911
                    6          7          8          9         10
     6  C    0.000000
     7  H    3.437280   0.000000
     8  H    3.910328   2.471525   0.000000
     9  H    2.152549   5.004765   4.360137   0.000000
    10  H    1.094506   4.343859   5.004826   2.471411   0.000000
    11  N    3.702253   4.585414   2.685345   2.685445   4.585432
    12  H    4.527920   4.723173   2.444244   3.710143   5.483588
    13  H    4.016776   5.483601   3.710140   2.444203   4.723091
    14  N    2.469925   2.699141   4.620698   4.620647   2.699230
    15  O    2.772602   3.927550   5.708055   4.826338   2.484566
    16  O    3.590828   2.484481   4.826399   5.708036   3.927672
                   11         12         13         14         15
    11  N    0.000000
    12  H    1.050386   0.000000
    13  H    1.050382   1.786853   0.000000
    14  N    5.640852   6.213320   6.213301   0.000000
    15  O    6.352504   7.047897   6.772468   1.233280   0.000000
    16  O    6.352506   6.772516   7.047916   1.233314   2.130196
                   16
    16  O    0.000000
 Symmetry turned off by external request.
 Stoichiometry    C6H6N2O2
 Framework group  C1[X(C6H6N2O2)]
 Deg. of freedom    42
 Full point group                 C1      NOp   1
 Rotational constants (GHZ):           3.9241974           0.8062142           0.6689936
 Standard basis: STO-3G (5D, 7F)
    56 basis functions,   168 primitive gaussians,    56 cartesian basis functions
    36 alpha electrons       36 beta electrons
       nuclear repulsion energy       491.9117644812 Hartrees.
 NAtoms=   16 NActive=   16 NUniq=   16 SFac= 1.00D+00 NAtFMM=   60 NAOKFM=F Big=F
 Integral buffers will be    131072 words long.
 Regular integral format.
 Two-electron integral symmetry is turned off.
 One-electron integrals computed using PRISM.
 NBasis=    56 RedAO= T EigKep=  1.77D-01  NBF=    56
 NBsUse=    56 1.00D-06 EigRej= -1.00D+00 NBFU=    56
 ExpMin= 1.69D-01 ExpMax= 1.31D+02 ExpMxC= 1.31D+02 IAcc=3 IRadAn=         5 AccDes= 0.00D+00
 Harris functional with IExCor=  402 and IRadAn=       5 diagonalized for initial guess.
 HarFok:  IExCor=  402 AccDes= 0.00D+00 IRadAn=         5 IDoV= 1 UseB2=F ITyADJ=14
 ICtDFT=  3500011 ScaDFX=  1.000000  1.000000  1.000000  1.000000
 FoFCou: FMM=F IPFlag=           0 FMFlag=      100000 FMFlg1=           0
         NFxFlg=           0 DoJE=T BraDBF=F KetDBF=T FulRan=T
         wScrn=  0.000000 ICntrl=       500 IOpCl=  0 I1Cent=   200000004 NGrid=           0
         NMat0=    1 NMatS0=      1 NMatT0=    0 NMatD0=    1 NMtDS0=    0 NMtDT0=    0
 Symmetry not used in FoFCou.
 Keep J ints in memory in canonical form, NReq=2156947.
 Requested convergence on RMS density matrix=1.00D-08 within 128 cycles.
 Requested convergence on MAX density matrix=1.00D-06.
 Requested convergence on             energy=1.00D-06.
 No special actions if energy rises.
 Integral accuracy reduced to 1.0D-05 until final iterations.
 Initial convergence to 1.0D-05 achieved.  Increase integral accuracy.
 SCF Done:  E(RB-LYP) =  -485.480008040     A.U. after   17 cycles
            NFock= 17  Conv=0.27D-08     -V/T= 2.0161
 DoSCS=F DFT=T ScalE2(SS,OS)=  1.000000  1.000000
 ExpMin= 1.69D-01 ExpMax= 1.31D+02 ExpMxC= 1.31D+02 IAcc=3 IRadAn=         5 AccDes= 0.00D+00
 HarFok:  IExCor=  205 AccDes= 0.00D+00 IRadAn=         5 IDoV=-2 UseB2=F ITyADJ=14
 ICtDFT= 12500011 ScaDFX=  1.000000  1.000000  1.000000  1.000000
 Range of M.O.s used for correlation:    11    56
 NBasis=    56 NAE=    36 NBE=    36 NFC=    10 NFV=     0
 NROrb=     46 NOA=    26 NOB=    26 NVA=    20 NVB=    20

 **** Warning!!: The smallest alpha delta epsilon is  0.79110443D-01

 Keep J ints in memory in canonical form, NReq=2721926.
    20 initial guesses have been made.
 Convergence on wavefunction:    0.000001000000000
 Iteration     1 Dimension    20 NMult     0 NNew     20
 CISAX will form    20 AO SS matrices at one time.
 New state      4 was old state      6
 New state      5 was old state      7
 Iteration     2 Dimension    40 NMult    20 NNew     20
 Iteration     3 Dimension    45 NMult    40 NNew      5
 Iteration     4 Dimension    50 NMult    45 NNew      5
 Iteration     5 Dimension    55 NMult    50 NNew      5
 Iteration     6 Dimension    60 NMult    55 NNew      5
 Iteration     7 Dimension    65 NMult    60 NNew      5
 Iteration     8 Dimension    69 NMult    65 NNew      4
 Iteration     9 Dimension    73 NMult    69 NNew      4
 Iteration    10 Dimension    74 NMult    73 NNew      1
 ***********************************************************************
 Excited states from <AA,BB:AA,BB> singles matrix:
 ***********************************************************************
 
 Ground to excited state transition densities written to RWF  633
 Ground to excited state transition electric dipole moments (Au):
       state          X           Y           Z        Dip. S.      Osc.
         1        -0.0001     -0.0000      0.0000      0.0000      0.0000
         2        -0.0002     -0.0000      0.0429      0.0018      0.0001
         3         0.0003     -0.0000     -0.0346      0.0012      0.0001
         4        -0.0000     -0.0010      0.0000      0.0000      0.0000
         5        -0.0151      0.0000     -0.0020      0.0002      0.0000
 Ground to excited state transition velocity dipole moments (Au):
       state          X           Y           Z        Dip. S.      Osc.
         1         0.0000      0.0000     -0.0000      0.0000      0.0000
         2         0.0001      0.0000     -0.0133      0.0002      0.0011
         3         0.0001     -0.0000     -0.0067      0.0000      0.0003
         4         0.0000      0.0002     -0.0000      0.0000      0.0000
         5         0.0104     -0.0000      0.0000      0.0001      0.0005
 Ground to excited state transition magnetic dipole moments (Au):
       state          X           Y           Z
         1         0.6695      0.0001     -0.0005
         2        -0.0000     -0.0712      0.0001
         3         0.0001     -0.8047      0.0001
         4        -0.0665      0.0001     -0.0019
         5         0.0000     -0.0004     -0.0000
 Ground to excited state transition velocity quadrupole moments (Au):
       state          XX          YY          ZZ          XY          XZ          YZ
         1        -0.0000      0.0000     -0.0000     -0.0003     -0.0000      0.0015
         2         0.0005     -0.0003      0.0002      0.0000     -0.0149      0.0000
         3         0.0015     -0.0003     -0.0003      0.0000      0.0810      0.0000
         4        -0.0000     -0.0000     -0.0000      0.0003     -0.0000      0.0241
         5         0.0055     -0.0063     -0.0016      0.0000      0.0004      0.0000
 <0|del|b> * <b|rxdel|0> + <0|del|b> * <b|delr+rdel|0>
 Rotatory Strengths (R) in cgs (10**-40 erg-esu-cm/Gauss)
       state          XX          YY          ZZ    R(velocity)    E-M Angle
         1         0.0000      0.0114      0.0114      0.0076       90.00
         2        -0.0028     -0.0019     -0.0001     -0.0016       90.00
         3        -0.0014     -0.0019      0.0008     -0.0008       90.00
         4         0.0000     -0.0006     -0.0013     -0.0006       90.00
         5         0.0000      0.0004      0.0002      0.0002       90.00
 1/2[<0|r|b>*<b|rxdel|0> + (<0|rxdel|b>*<b|r|0>)*]
 Rotatory Strengths (R) in cgs (10**-40 erg-esu-cm/Gauss)
       state          XX          YY          ZZ     R(length)
         1         0.0396      0.0000      0.0000      0.0132
         2        -0.0000     -0.0011     -0.0016     -0.0009
         3        -0.0000     -0.0017      0.0026      0.0003
         4        -0.0006      0.0000      0.0000     -0.0002
         5         0.0001      0.0000     -0.0000      0.0001
  1/2[<0|del|b>*<b|r|0> + (<0|r|b>*<b|del|0>)*] (Au)
       state          X           Y           Z        Dip. S.   Osc.(frdel)
         1        -0.0000     -0.0000     -0.0000      0.0000      0.0000
         2        -0.0000     -0.0000     -0.0006      0.0006      0.0004
         3         0.0000      0.0000      0.0002     -0.0002     -0.0002
         4        -0.0000     -0.0000     -0.0000      0.0000      0.0000
         5        -0.0002     -0.0000     -0.0000      0.0002      0.0001

 Excitation energies and oscillator strengths:
 
 Excited state symmetry could not be determined.
 Excited State   1:      Singlet-?Sym    2.3465 eV  528.39 nm  f=0.0000  <S**2>=0.000
      36 -> 37         0.70540
 This state for optimization and/or second-order correction.
 Total Energy, E(TD-HF/TD-DFT) =  -485.393777015    
 Copying the excited state density for this state as the 1-particle RhoCI density.
 
 Excited state symmetry could not be determined.
 Excited State   2:      Singlet-?Sym    2.8399 eV  436.58 nm  f=0.0001  <S**2>=0.000
      36 -> 38         0.70694
 
 Excited state symmetry could not be determined.
 Excited State   3:      Singlet-?Sym    3.2688 eV  379.29 nm  f=0.0001  <S**2>=0.000
      35 -> 37         0.70577
 
 Excited state symmetry could not be determined.
 Excited State   4:      Singlet-?Sym    3.7386 eV  331.63 nm  f=0.0000  <S**2>=0.000
      35 -> 38         0.70705
 
 Excited state symmetry could not be determined.
 Excited State   5:      Singlet-?Sym    4.0182 eV  308.56 nm  f=0.0000  <S**2>=0.000
      34 -> 38         0.70345
 SavETr:  write IOETrn=   770 NScale= 10 NData=  16 NLR=1 NState=    5 LETran=     100.
          IDoAtm=1111111111111111
          Differentiating once with respect to electric field.
                with respect to dipole field.
          Differentiating once with respect to nuclear coordinates.
 Keep J ints in memory in canonical form, NReq=2168954.
          There are     1 degrees of freedom in the 1st order CPHF.  IDoFFX=0 NUNeed=     1.
 LinEq1:  Iter=  0 NonCon=     1 RMS=7.05D-02 Max=1.30D+00 NDo=     1
 AX will form     1 AO Fock derivatives at one time.
 LinEq1:  Iter=  1 NonCon=     1 RMS=2.57D-02 Max=2.98D-01 NDo=     1
 LinEq1:  Iter=  2 NonCon=     1 RMS=1.10D-02 Max=9.21D-02 NDo=     1
 LinEq1:  Iter=  3 NonCon=     1 RMS=1.16D-02 Max=1.53D-01 NDo=     1
 LinEq1:  Iter=  4 NonCon=     1 RMS=1.98D-02 Max=3.93D-01 NDo=     1
 LinEq1:  Iter=  5 NonCon=     1 RMS=3.50D-02 Max=3.92D-01 NDo=     1
 LinEq1:  Iter=  6 NonCon=     1 RMS=2.22D-02 Max=2.86D-01 NDo=     1
 LinEq1:  Iter=  7 NonCon=     1 RMS=5.61D-03 Max=5.37D-02 NDo=     1
 LinEq1:  Iter=  8 NonCon=     1 RMS=4.05D-03 Max=6.94D-02 NDo=     1
 LinEq1:  Iter=  9 NonCon=     1 RMS=1.35D-03 Max=7.96D-03 NDo=     1
 LinEq1:  Iter= 10 NonCon=     1 RMS=5.53D-04 Max=6.25D-03 NDo=     1
 LinEq1:  Iter= 11 NonCon=     1 RMS=1.50D-04 Max=1.81D-03 NDo=     1
 LinEq1:  Iter= 12 NonCon=     1 RMS=1.32D-05 Max=1.03D-04 NDo=     1
 LinEq1:  Iter= 13 NonCon=     1 RMS=7.60D-06 Max=1.41D-04 NDo=     1
 LinEq1:  Iter= 14 NonCon=     1 RMS=2.62D-06 Max=2.25D-05 NDo=     1
 LinEq1:  Iter= 15 NonCon=     1 RMS=3.02D-07 Max=1.87D-06 NDo=     1
 LinEq1:  Iter= 16 NonCon=     1 RMS=2.95D-08 Max=1.69D-07 NDo=     1
 LinEq1:  Iter= 17 NonCon=     1 RMS=2.10D-08 Max=2.29D-07 NDo=     1
 LinEq1:  Iter= 18 NonCon=     1 RMS=5.03D-09 Max=3.28D-08 NDo=     1
 LinEq1:  Iter= 19 NonCon=     1 RMS=6.88D-10 Max=4.51D-09 NDo=     1
 LinEq1:  Iter= 20 NonCon=     0 RMS=8.42D-11 Max=6.64D-10 NDo=     1
 Linear equations converged to 1.000D-10 1.000D-09 after    20 iterations.
 End of Minotr F.D. properties file   721 does not exist.
 End of Minotr F.D. properties file   722 does not exist.
 End of Minotr F.D. properties file   788 does not exist.

 **********************************************************************

            Population analysis using the SCF Density.

 **********************************************************************

 Alpha  occ. eigenvalues --  -18.50346 -18.50340 -14.06696 -13.88553  -9.81347
 Alpha  occ. eigenvalues --   -9.77767  -9.75846  -9.75842  -9.74926  -9.74921
 Alpha  occ. eigenvalues --   -1.03204  -0.84472  -0.80427  -0.72628  -0.64664
 Alpha  occ. eigenvalues --   -0.63391  -0.55205  -0.51746  -0.46892  -0.43033
 Alpha  occ. eigenvalues --   -0.42884  -0.37240  -0.35807  -0.35209  -0.34881
 Alpha  occ. eigenvalues --   -0.33352  -0.29895  -0.29253  -0.28644  -0.25863
 Alpha  occ. eigenvalues --   -0.21173  -0.16812  -0.10828  -0.09426  -0.08404
 Alpha  occ. eigenvalues --   -0.05085
 Alpha virt. eigenvalues --    0.02826   0.05330   0.09916   0.20664   0.23752
 Alpha virt. eigenvalues --    0.24538   0.28707   0.31920   0.35345   0.37409
 Alpha virt. eigenvalues --    0.38978   0.40468   0.43820   0.45521   0.51082
 Alpha virt. eigenvalues --    0.53046   0.53986   0.56791   0.68783   0.72096
     Molecular Orbital Coefficients:
                           1         2         3         4         5
                           O         O         O         O         O
     Eigenvalues --   -18.50346 -18.50340 -14.06696 -13.88553  -9.81347
   1 1   C  1S          0.00000   0.00000   0.00063   0.00000  -0.00078
   2        2S          0.00025   0.00003  -0.00668   0.00000  -0.00021
   3        2PX         0.00002   0.00000   0.00590  -0.00005  -0.00024
   4        2PY         0.00004  -0.00037   0.00000  -0.00000  -0.00000
   5        2PZ        -0.00000  -0.00000  -0.00001  -0.00000  -0.00000
   6 2   C  1S          0.00001  -0.00001  -0.00001   0.00000  -0.00016
   7        2S          0.00003   0.00005   0.00032   0.00002   0.00042
   8        2PX         0.00014   0.00008  -0.00038   0.00001   0.00014
   9        2PY        -0.00012  -0.00016  -0.00009  -0.00007   0.00013
  10        2PZ        -0.00000  -0.00000   0.00000   0.00001  -0.00000
  11 3   C  1S          0.00000   0.00000   0.00001  -0.00002  -0.00679
  12        2S         -0.00006  -0.00004  -0.00001   0.00036  -0.00992
  13        2PX         0.00004   0.00003   0.00001   0.00050  -0.00337
  14        2PY         0.00001   0.00001  -0.00007  -0.00001  -0.00567
  15        2PZ        -0.00000  -0.00000  -0.00000  -0.00002  -0.00005
  16 4   C  1S         -0.00000  -0.00000   0.00000   0.00063   0.99025
  17        2S          0.00000   0.00000   0.00001  -0.00776   0.04532
  18        2PX        -0.00001  -0.00000   0.00004  -0.00646  -0.00057
  19        2PY        -0.00000   0.00000   0.00000   0.00000   0.00000
  20        2PZ         0.00000   0.00000   0.00000  -0.00018   0.00024
  21 5   C  1S          0.00000  -0.00000   0.00001  -0.00002  -0.00678
  22        2S         -0.00007   0.00003  -0.00001   0.00036  -0.00992
  23        2PX         0.00005  -0.00002   0.00001   0.00050  -0.00337
  24        2PY        -0.00001   0.00001   0.00007   0.00001   0.00567
  25        2PZ        -0.00000   0.00000  -0.00000  -0.00002  -0.00005
  26 6   C  1S          0.00000   0.00001  -0.00001   0.00000  -0.00016
  27        2S          0.00004  -0.00004   0.00032   0.00002   0.00042
  28        2PX         0.00016  -0.00004  -0.00038   0.00001   0.00014
  29        2PY         0.00016  -0.00013   0.00009   0.00007  -0.00013
  30        2PZ        -0.00000   0.00000   0.00000   0.00001  -0.00000
  31 7   H  1S         -0.00027  -0.00033  -0.00021  -0.00002  -0.00008
  32 8   H  1S          0.00001   0.00001  -0.00002   0.00001   0.00021
  33 9   H  1S          0.00001  -0.00001  -0.00002   0.00001   0.00021
  34 10  H  1S         -0.00035   0.00026  -0.00021  -0.00002  -0.00008
  35 11  N  1S         -0.00000  -0.00000  -0.00001   0.99216   0.00081
  36        2S          0.00000   0.00000  -0.00002   0.03781  -0.00813
  37        2PX        -0.00000  -0.00000   0.00001  -0.00130   0.00557
  38        2PY        -0.00000   0.00000  -0.00000   0.00000  -0.00000
  39        2PZ        -0.00000  -0.00000   0.00000  -0.00225   0.00017
  40 12  H  1S         -0.00000  -0.00000   0.00000  -0.00796  -0.00040
  41 13  H  1S         -0.00000   0.00000   0.00000  -0.00796  -0.00040
  42 14  N  1S          0.00081   0.00010   0.99230   0.00001   0.00001
  43        2S         -0.01032  -0.00124   0.03639  -0.00001  -0.00004
  44        2PX         0.00476   0.00057  -0.00067  -0.00001  -0.00003
  45        2PY        -0.00093   0.00777   0.00000  -0.00000  -0.00000
  46        2PZ        -0.00000  -0.00000  -0.00000  -0.00000   0.00000
  47 15  O  1S          0.78125  -0.61388   0.00085  -0.00000  -0.00000
  48        2S          0.02231  -0.01718  -0.00708   0.00000   0.00000
  49        2PX         0.00205  -0.00187  -0.00219   0.00000   0.00000
  50        2PY        -0.00390   0.00263   0.00411   0.00000   0.00000
  51        2PZ        -0.00000   0.00000   0.00000   0.00000  -0.00000
  52 16  O  1S          0.61385   0.78127   0.00085  -0.00000  -0.00000
  53        2S          0.01761   0.02197  -0.00708   0.00000   0.00000
  54        2PX         0.00155   0.00230  -0.00219   0.00000   0.00000
  55        2PY         0.00317   0.00347  -0.00411  -0.00000  -0.00000
  56        2PZ        -0.00000  -0.00000   0.00000   0.00000  -0.00000
                           6         7         8         9        10
                           O         O         O         O         O
     Eigenvalues --    -9.77767  -9.75846  -9.75842  -9.74926  -9.74921
   1 1   C  1S          0.98966   0.00075   0.03528   0.00010   0.00233
   2        2S          0.04554  -0.00027  -0.01254  -0.00001  -0.00012
   3        2PX         0.00151  -0.00010  -0.00469  -0.00001  -0.00013
   4        2PY         0.00000  -0.00820   0.00017   0.00025  -0.00001
   5        2PZ        -0.00001   0.00000   0.00001   0.00000   0.00000
   6 2   C  1S         -0.02344  -0.68439   0.71360   0.03402   0.03576
   7        2S         -0.01099  -0.03189   0.03350  -0.00571  -0.00521
   8        2PX         0.00323  -0.00080   0.00103  -0.00483  -0.00459
   9        2PY        -0.00589  -0.00088   0.00094   0.00007  -0.00022
  10        2PZ        -0.00001   0.00001  -0.00001   0.00002   0.00002
  11 3   C  1S         -0.00032   0.03065  -0.03675   0.72871   0.66877
  12        2S          0.00058   0.00823  -0.00904   0.03322   0.03081
  13        2PX        -0.00027  -0.00460   0.00497  -0.00044  -0.00039
  14        2PY         0.00005  -0.00001  -0.00030   0.00081   0.00082
  15        2PZ         0.00000   0.00002  -0.00002   0.00003   0.00003
  16 4   C  1S          0.00083  -0.00001  -0.00033   0.00051   0.01182
  17        2S         -0.00011   0.00003   0.00124  -0.00057  -0.01323
  18        2PX         0.00026  -0.00001  -0.00041   0.00020   0.00477
  19        2PY         0.00000   0.00048  -0.00001   0.00805  -0.00034
  20        2PZ         0.00000   0.00000   0.00000   0.00000   0.00001
  21 5   C  1S         -0.00032  -0.03217  -0.03539  -0.66901   0.72849
  22        2S          0.00058  -0.00861  -0.00868  -0.03047   0.03353
  23        2PX        -0.00027   0.00480   0.00477   0.00041  -0.00042
  24        2PY        -0.00005   0.00001   0.00030   0.00074  -0.00089
  25        2PZ         0.00000  -0.00002  -0.00002  -0.00003   0.00003
  26 6   C  1S         -0.02344   0.71419   0.68377  -0.03083   0.03851
  27        2S         -0.01099   0.03329   0.03211   0.00525  -0.00568
  28        2PX         0.00323   0.00084   0.00099   0.00443  -0.00499
  29        2PY         0.00589  -0.00092  -0.00091   0.00008   0.00021
  30        2PZ        -0.00001  -0.00001  -0.00001  -0.00002   0.00002
  31 7   H  1S          0.00035   0.00653  -0.00692  -0.00013  -0.00027
  32 8   H  1S         -0.00011  -0.00047   0.00045  -0.00696  -0.00652
  33 9   H  1S         -0.00011   0.00049   0.00043   0.00638  -0.00709
  34 10  H  1S          0.00035  -0.00682  -0.00664   0.00011  -0.00028
  35 11  N  1S          0.00001   0.00000   0.00002  -0.00000  -0.00003
  36        2S         -0.00007  -0.00000  -0.00013   0.00002   0.00055
  37        2PX         0.00005   0.00000   0.00011  -0.00001  -0.00016
  38        2PY        -0.00000  -0.00008   0.00000  -0.00023   0.00001
  39        2PZ         0.00000   0.00000   0.00000  -0.00000  -0.00004
  40 12  H  1S          0.00000   0.00002  -0.00003  -0.00008  -0.00018
  41 13  H  1S          0.00000  -0.00002  -0.00003   0.00007  -0.00019
  42 14  N  1S          0.00093   0.00000   0.00001   0.00000   0.00002
  43        2S         -0.00768   0.00001   0.00025  -0.00000  -0.00011
  44        2PX        -0.00520   0.00000   0.00009  -0.00000  -0.00009
  45        2PY        -0.00000   0.00011  -0.00000   0.00007  -0.00000
  46        2PZ         0.00001   0.00000  -0.00000  -0.00000  -0.00000
  47 15  O  1S          0.00002  -0.00001   0.00001  -0.00000   0.00001
  48        2S          0.00009   0.00006  -0.00004   0.00000  -0.00002
  49        2PX         0.00004   0.00000  -0.00008   0.00002  -0.00003
  50        2PY        -0.00011   0.00003   0.00003   0.00002  -0.00001
  51        2PZ        -0.00000   0.00000   0.00000  -0.00000   0.00000
  52 16  O  1S          0.00002   0.00001   0.00001   0.00000   0.00000
  53        2S          0.00009  -0.00006  -0.00003  -0.00000  -0.00002
  54        2PX         0.00004  -0.00001  -0.00008  -0.00002  -0.00002
  55        2PY         0.00011   0.00003  -0.00003   0.00002   0.00001
  56        2PZ        -0.00000  -0.00000   0.00000   0.00000   0.00000
                          11        12        13        14        15
                           O         O         O         O         O
     Eigenvalues --    -1.03204  -0.84472  -0.80427  -0.72628  -0.64664
   1 1   C  1S         -0.03057  -0.00000  -0.01612  -0.13959  -0.12015
   2        2S          0.06091   0.00001   0.03895   0.35317   0.32136
   3        2PX        -0.03816  -0.00000   0.01107   0.03493  -0.10348
   4        2PY        -0.00000  -0.02399   0.00000   0.00001   0.00002
   5        2PZ         0.00001   0.00000  -0.00007  -0.00045  -0.00005
   6 2   C  1S         -0.00545  -0.00661  -0.01964  -0.10856  -0.00685
   7        2S          0.01282   0.01473   0.04810   0.27339   0.02099
   8        2PX        -0.00594  -0.00818   0.01452   0.00867  -0.10445
   9        2PY         0.00586   0.00126   0.00932   0.06627   0.03953
  10        2PZ         0.00000  -0.00000  -0.00010  -0.00040   0.00031
  11 3   C  1S         -0.00062  -0.00099  -0.04708  -0.07543   0.09215
  12        2S          0.00159   0.00286   0.11476   0.18788  -0.24200
  13        2PX        -0.00102  -0.00169   0.02333  -0.05057  -0.02084
  14        2PY         0.00014  -0.00003   0.03847   0.03179  -0.05353
  15        2PZ         0.00000   0.00000  -0.00017   0.00002   0.00004
  16 4   C  1S         -0.00029  -0.00000  -0.12788  -0.03588   0.09823
  17        2S          0.00069   0.00000   0.30553   0.09608  -0.27058
  18        2PX        -0.00034  -0.00000   0.08964  -0.10226   0.11070
  19        2PY         0.00000  -0.00058   0.00000   0.00000   0.00002
  20        2PZ        -0.00000  -0.00000   0.00060  -0.00071   0.00005
  21 5   C  1S         -0.00062   0.00099  -0.04708  -0.07543   0.09211
  22        2S          0.00159  -0.00285   0.11476   0.18788  -0.24188
  23        2PX        -0.00102   0.00169   0.02333  -0.05057  -0.02086
  24        2PY        -0.00014  -0.00003  -0.03847  -0.03179   0.05353
  25        2PZ         0.00000  -0.00000  -0.00017   0.00002   0.00004
  26 6   C  1S         -0.00546   0.00661  -0.01964  -0.10857  -0.00689
  27        2S          0.01282  -0.01472   0.04810   0.27340   0.02111
  28        2PX        -0.00594   0.00818   0.01452   0.00867  -0.10443
  29        2PY        -0.00587   0.00126  -0.00932  -0.06628  -0.03953
  30        2PZ         0.00000   0.00000  -0.00011  -0.00040   0.00031
  31 7   H  1S          0.00322   0.00813   0.00661   0.04926   0.00991
  32 8   H  1S          0.00011   0.00029   0.02146   0.03186  -0.05630
  33 9   H  1S          0.00011  -0.00029   0.02146   0.03187  -0.05627
  34 10  H  1S          0.00322  -0.00813   0.00661   0.04926   0.00994
  35 11  N  1S         -0.00004  -0.00000  -0.19493   0.07114  -0.07031
  36        2S          0.00015   0.00000   0.63725  -0.24092   0.25033
  37        2PX        -0.00007  -0.00000  -0.06275  -0.01967   0.09028
  38        2PY         0.00000  -0.00004   0.00002  -0.00001   0.00002
  39        2PZ        -0.00001  -0.00000  -0.06427   0.02725  -0.03383
  40 12  H  1S          0.00002   0.00002   0.11482  -0.05639   0.08159
  41 13  H  1S          0.00002  -0.00002   0.11482  -0.05639   0.08160
  42 14  N  1S         -0.18190  -0.00001  -0.00024  -0.01826  -0.05289
  43        2S          0.55311   0.00005   0.00128   0.06760   0.19767
  44        2PX        -0.09416  -0.00000   0.01203   0.16441   0.28798
  45        2PY         0.00003  -0.37124   0.00000   0.00000  -0.00000
  46        2PZ        -0.00009   0.00003  -0.00002  -0.00024  -0.00039
  47 15  O  1S         -0.11173   0.15311   0.00254   0.02976   0.04880
  48        2S          0.35049  -0.52650  -0.00885  -0.10842  -0.18662
  49        2PX         0.07186  -0.09387  -0.00010   0.00705   0.02640
  50        2PY        -0.12720   0.11965   0.00277   0.02972   0.03838
  51        2PZ        -0.00005   0.00007  -0.00000  -0.00002  -0.00004
  52 16  O  1S         -0.11171  -0.15313   0.00254   0.02976   0.04880
  53        2S          0.35042   0.52657  -0.00886  -0.10843  -0.18660
  54        2PX         0.07184   0.09388  -0.00011   0.00705   0.02640
  55        2PY         0.12717   0.11966  -0.00277  -0.02972  -0.03837
  56        2PZ        -0.00008  -0.00010  -0.00000  -0.00002  -0.00004
                          16        17        18        19        20
                           O         O         O         O         O
     Eigenvalues --    -0.63391  -0.55205  -0.51746  -0.46892  -0.43033
   1 1   C  1S          0.00002  -0.00437   0.00000   0.07780  -0.00430
   2        2S         -0.00005   0.01418  -0.00001  -0.22802   0.01119
   3        2PX         0.00003  -0.22333   0.00000  -0.22393   0.01204
   4        2PY         0.13256  -0.00001  -0.21758  -0.00001  -0.00010
   5        2PZ         0.00000   0.00064  -0.00001   0.00028  -0.00194
   6 2   C  1S          0.12555   0.09075  -0.10014  -0.00187   0.04937
   7        2S         -0.33597  -0.25544   0.28891   0.00922  -0.16447
   8        2PX        -0.06382  -0.02475  -0.10460   0.09704   0.12116
   9        2PY         0.01351   0.00046  -0.00537  -0.20400   0.15435
  10        2PZ         0.00066   0.00062  -0.00001  -0.00098  -0.00260
  11 3   C  1S          0.12908  -0.01022   0.08329  -0.07586  -0.03282
  12        2S         -0.34359   0.03250  -0.23906   0.23423   0.09580
  13        2PX         0.05562   0.14050  -0.15010  -0.01685  -0.03295
  14        2PY         0.01374   0.07613  -0.00580  -0.18660   0.13317
  15        2PZ         0.00019   0.00078   0.00064  -0.00247  -0.00761
  16 4   C  1S         -0.00002  -0.12096   0.00001   0.06659   0.02506
  17        2S          0.00005   0.35408  -0.00002  -0.20426  -0.09124
  18        2PX        -0.00002  -0.00249  -0.00001  -0.03874  -0.34585
  19        2PY         0.14846   0.00001   0.26038  -0.00001  -0.00005
  20        2PZ         0.00000   0.00448   0.00001  -0.00796  -0.02774
  21 5   C  1S         -0.12911  -0.01023  -0.08329  -0.07586  -0.03288
  22        2S          0.34366   0.03254   0.23906   0.23423   0.09600
  23        2PX        -0.05561   0.14050   0.15008  -0.01686  -0.03303
  24        2PY         0.01373  -0.07614  -0.00581   0.18662  -0.13309
  25        2PZ        -0.00019   0.00077  -0.00064  -0.00247  -0.00762
  26 6   C  1S         -0.12555   0.09075   0.10013  -0.00188   0.04940
  27        2S          0.33596  -0.25545  -0.28889   0.00923  -0.16455
  28        2PX         0.06385  -0.02474   0.10461   0.09705   0.12133
  29        2PY         0.01351  -0.00045  -0.00537   0.20403  -0.15432
  30        2PZ        -0.00066   0.00062   0.00000  -0.00097  -0.00262
  31 7   H  1S         -0.08843  -0.08123   0.12855   0.07311  -0.18756
  32 8   H  1S         -0.09662   0.00800  -0.12523   0.18362  -0.03817
  33 9   H  1S          0.09664   0.00801   0.12522   0.18364  -0.03808
  34 10  H  1S          0.08843  -0.08123  -0.12855   0.07312  -0.18763
  35 11  N  1S          0.00001   0.04964  -0.00000  -0.00388  -0.00108
  36        2S         -0.00004  -0.19058   0.00000   0.01558   0.01375
  37        2PX        -0.00001  -0.21158   0.00002   0.17186   0.42239
  38        2PY         0.04378  -0.00001   0.19896  -0.00001  -0.00031
  39        2PZ         0.00001   0.03926   0.00004  -0.02021  -0.05370
  40 12  H  1S         -0.01915  -0.11419  -0.10647   0.07338   0.16692
  41 13  H  1S          0.01913  -0.11418   0.10649   0.07336   0.16650
  42 14  N  1S          0.00001  -0.07641  -0.00000  -0.05992  -0.03452
  43        2S         -0.00005   0.30039   0.00000   0.24632   0.14833
  44        2PX        -0.00006   0.27835  -0.00000   0.15697   0.02218
  45        2PY        -0.00993   0.00000  -0.00559  -0.00000  -0.00002
  46        2PZ         0.00001  -0.00027  -0.00002  -0.00027  -0.00148
  47 15  O  1S          0.00978   0.05199  -0.01564   0.03976   0.02566
  48        2S         -0.03772  -0.21134   0.06450  -0.16943  -0.11371
  49        2PX         0.00070   0.04436  -0.01120   0.04690   0.01266
  50        2PY         0.00868   0.01379  -0.01154  -0.00997  -0.04121
  51        2PZ        -0.00001  -0.00002   0.00001  -0.00005  -0.00047
  52 16  O  1S         -0.00980   0.05199   0.01564   0.03976   0.02567
  53        2S          0.03781  -0.21134  -0.06450  -0.16943  -0.11377
  54        2PX        -0.00071   0.04436   0.01120   0.04690   0.01268
  55        2PY         0.00870  -0.01379  -0.01154   0.00997   0.04120
  56        2PZ         0.00001  -0.00001  -0.00002  -0.00005  -0.00047
                          21        22        23        24        25
                           O         O         O         O         O
     Eigenvalues --    -0.42884  -0.37240  -0.35807  -0.35209  -0.34881
   1 1   C  1S         -0.00000   0.00023  -0.08074   0.03234  -0.00001
   2        2S          0.00000  -0.00081   0.27246  -0.10828   0.00003
   3        2PX        -0.00000   0.00160   0.03577  -0.19177   0.00010
   4        2PY         0.18031   0.00001   0.00002   0.00019   0.32210
   5        2PZ         0.00002   0.23279   0.00059   0.00055  -0.00002
   6 2   C  1S          0.02584  -0.00003   0.04281  -0.00295  -0.00221
   7        2S         -0.08206  -0.00008  -0.14517   0.01713   0.01216
   8        2PX         0.16010   0.00306  -0.05599  -0.09722   0.13236
   9        2PY        -0.03373   0.00151   0.15774  -0.17087  -0.25569
  10        2PZ        -0.00055   0.08319  -0.00028  -0.00336  -0.00067
  11 3   C  1S         -0.05289  -0.00024  -0.03084   0.00929   0.02241
  12        2S          0.16950   0.00067   0.11292  -0.03403  -0.07680
  13        2PX        -0.06063  -0.00224   0.16894   0.02670  -0.15952
  14        2PY        -0.06727  -0.00005  -0.17596   0.17085  -0.20373
  15        2PZ        -0.00020   0.03481  -0.00349  -0.01093   0.00002
  16 4   C  1S          0.00002   0.00084   0.03529  -0.04680   0.00002
  17        2S         -0.00007  -0.00290  -0.12443   0.15804  -0.00007
  18        2PX        -0.00021  -0.00082   0.04231  -0.24496   0.00015
  19        2PY         0.08955   0.00002   0.00003   0.00018   0.29078
  20        2PZ         0.00004   0.03093  -0.00700  -0.03068  -0.00006
  21 5   C  1S          0.05284  -0.00025  -0.03085   0.00927  -0.02242
  22        2S         -0.16937   0.00071   0.11295  -0.03397   0.07683
  23        2PX         0.06059  -0.00218   0.16885   0.02701   0.15947
  24        2PY        -0.06743   0.00005   0.17585  -0.17102  -0.20354
  25        2PZ         0.00022   0.03481  -0.00351  -0.01092  -0.00008
  26 6   C  1S         -0.02578  -0.00001   0.04281  -0.00294   0.00220
  27        2S          0.08185  -0.00013  -0.14517   0.01710  -0.01214
  28        2PX        -0.15995   0.00304  -0.05589  -0.09750  -0.13226
  29        2PY        -0.03390  -0.00153  -0.15786   0.17067  -0.25583
  30        2PZ         0.00057   0.08319  -0.00031  -0.00333   0.00061
  31 7   H  1S         -0.06385  -0.00220  -0.14084   0.18054   0.13671
  32 8   H  1S          0.07947  -0.00038   0.24679  -0.12777   0.05727
  33 9   H  1S         -0.07951  -0.00034   0.24668  -0.12775  -0.05716
  34 10  H  1S          0.06362  -0.00221  -0.14097   0.18049  -0.13688
  35 11  N  1S         -0.00000  -0.00094   0.01052   0.01269  -0.00000
  36        2S          0.00001   0.00380  -0.04843  -0.04978   0.00001
  37        2PX         0.00026   0.00148   0.04699   0.20139  -0.00013
  38        2PY         0.51359  -0.00005   0.00001  -0.00014  -0.21316
  39        2PZ         0.00015   0.01230  -0.00435  -0.03431  -0.00013
  40 12  H  1S         -0.32781   0.00029   0.02192   0.07008   0.17689
  41 13  H  1S          0.32802   0.00022   0.02193   0.06983  -0.17698
  42 14  N  1S         -0.00002  -0.00117   0.07252   0.05284  -0.00004
  43        2S          0.00010   0.00514  -0.31907  -0.23422   0.00017
  44        2PX         0.00002  -0.00166   0.15854   0.28417  -0.00019
  45        2PY         0.02724   0.00007   0.00002   0.00010   0.13825
  46        2PZ         0.00003   0.72793   0.00497   0.01091  -0.00006
  47 15  O  1S          0.01460   0.00119  -0.08211  -0.07662   0.03551
  48        2S         -0.06363  -0.00540   0.37400   0.35284  -0.16407
  49        2PX         0.02014   0.00069  -0.05190   0.00173   0.07267
  50        2PY         0.00242  -0.00275   0.18372   0.22856  -0.05218
  51        2PZ        -0.00001   0.28815   0.00205   0.00460  -0.00004
  52 16  O  1S         -0.01456   0.00119  -0.08212  -0.07666  -0.03540
  53        2S          0.06348  -0.00541   0.37401   0.35306   0.16357
  54        2PX        -0.02012   0.00069  -0.05191   0.00163  -0.07265
  55        2PY         0.00247   0.00280  -0.18373  -0.22861  -0.05187
  56        2PZ         0.00003   0.28811   0.00208   0.00464   0.00001
                          26        27        28        29        30
                           O         O         O         O         O
     Eigenvalues --    -0.33352  -0.29895  -0.29253  -0.28644  -0.25863
   1 1   C  1S         -0.00002   0.02979  -0.00001  -0.00921  -0.00000
   2        2S          0.00009  -0.09822   0.00004   0.03041  -0.00000
   3        2PX         0.00004  -0.11242   0.00006   0.02942  -0.00001
   4        2PY         0.04493   0.00006   0.03680   0.00002   0.32408
   5        2PZ        -0.00002   0.04154  -0.00003   0.15961  -0.00002
   6 2   C  1S         -0.02642  -0.00279  -0.00926   0.00319   0.00921
   7        2S          0.08447   0.00060   0.03889  -0.00828  -0.02271
   8        2PX         0.28015   0.30403  -0.09875  -0.10867   0.04099
   9        2PY         0.16309   0.02855  -0.04998  -0.01267  -0.28536
  10        2PZ        -0.00131   0.05868   0.00073   0.20975   0.00065
  11 3   C  1S         -0.01697  -0.01069   0.00062   0.00136  -0.00706
  12        2S          0.04876   0.02989  -0.00524  -0.00286   0.01683
  13        2PX        -0.28542  -0.29043   0.10070   0.10547   0.00767
  14        2PY         0.19592  -0.00828   0.16395   0.01381   0.23860
  15        2PZ         0.00098   0.09747   0.00051   0.29084   0.00152
  16 4   C  1S          0.00002   0.03071  -0.00002  -0.00551  -0.00001
  17        2S         -0.00006  -0.10335   0.00006   0.01640   0.00002
  18        2PX         0.00010   0.16259  -0.00011  -0.10788  -0.00003
  19        2PY         0.00676  -0.00013  -0.23388   0.00007  -0.29279
  20        2PZ        -0.00006   0.17354   0.00000   0.44837   0.00003
  21 5   C  1S          0.01696  -0.01070  -0.00060   0.00134   0.00706
  22        2S         -0.04871   0.02993   0.00520  -0.00281  -0.01683
  23        2PX         0.28542  -0.29054  -0.10037   0.10564  -0.00761
  24        2PY         0.19607   0.00843   0.16392  -0.01388   0.23858
  25        2PZ        -0.00105   0.09748  -0.00053   0.29083  -0.00155
  26 6   C  1S          0.02643  -0.00278   0.00926   0.00320  -0.00920
  27        2S         -0.08454   0.00058  -0.03889  -0.00832   0.02270
  28        2PX        -0.28008   0.30414   0.09840  -0.10880  -0.04106
  29        2PY         0.16294  -0.02871  -0.04994   0.01268  -0.28534
  30        2PZ         0.00129   0.05866  -0.00078   0.20976  -0.00074
  31 7   H  1S         -0.19421  -0.14910   0.12345   0.05522   0.23036
  32 8   H  1S         -0.24585  -0.11729  -0.10506   0.04202  -0.23269
  33 9   H  1S          0.24599  -0.11718   0.10518   0.04204   0.23270
  34 10  H  1S          0.19402  -0.14929  -0.12327   0.05529  -0.23033
  35 11  N  1S         -0.00000  -0.03374   0.00001  -0.00502  -0.00000
  36        2S         -0.00000   0.14976  -0.00006   0.01882   0.00000
  37        2PX        -0.00008  -0.19478   0.00013   0.13022   0.00004
  38        2PY        -0.11502  -0.00003   0.07381  -0.00020   0.04103
  39        2PZ        -0.00009   0.13124   0.00006   0.30587   0.00010
  40 12  H  1S          0.08143  -0.07656  -0.08182   0.03246  -0.07047
  41 13  H  1S         -0.08147  -0.07652   0.08191   0.03228   0.07049
  42 14  N  1S          0.00001   0.00142   0.00000   0.00152  -0.00000
  43        2S         -0.00002  -0.00194  -0.00001  -0.00853   0.00000
  44        2PX        -0.00000   0.29449  -0.00016  -0.08678  -0.00001
  45        2PY         0.05725   0.00021   0.44159  -0.00005  -0.21672
  46        2PZ        -0.00003  -0.04767  -0.00001  -0.14663   0.00002
  47 15  O  1S          0.01817  -0.03993   0.08829   0.01039  -0.04082
  48        2S         -0.08288   0.18710  -0.42002  -0.04884   0.19581
  49        2PX         0.04616   0.02269   0.24199  -0.00797  -0.13919
  50        2PY        -0.00879   0.15973  -0.25476  -0.04447   0.14434
  51        2PZ        -0.00003  -0.02499   0.00002  -0.08169  -0.00003
  52 16  O  1S         -0.01818  -0.04001  -0.08825   0.01040   0.04082
  53        2S          0.08292   0.18751   0.41981  -0.04891  -0.19583
  54        2PX        -0.04618   0.02245  -0.24199  -0.00793   0.13918
  55        2PY        -0.00879  -0.15996  -0.25458   0.04450   0.14435
  56        2PZ         0.00002  -0.02495   0.00006  -0.08169   0.00000
                          31        32        33        34        35
                           O         O         O         O         O
     Eigenvalues --    -0.21173  -0.16812  -0.10828  -0.09426  -0.08404
   1 1   C  1S         -0.00060   0.00000  -0.00036  -0.00000   0.05120
   2        2S          0.00200  -0.00001   0.00139   0.00001  -0.23761
   3        2PX        -0.00076  -0.00000  -0.00033  -0.00001   0.31210
   4        2PY        -0.00002  -0.00090  -0.00003   0.00001   0.00000
   5        2PZ        -0.42962  -0.00001   0.42079  -0.00002   0.00048
   6 2   C  1S          0.00163  -0.00029   0.00066   0.00000  -0.00528
   7        2S         -0.00587   0.00095  -0.00279  -0.00000   0.02086
   8        2PX        -0.01610   0.00238  -0.00390  -0.00009  -0.03069
   9        2PY        -0.00143   0.00065  -0.00008   0.00000   0.07542
  10        2PZ        -0.33980   0.46288   0.08103  -0.00410   0.00020
  11 3   C  1S         -0.00112   0.00037  -0.00087  -0.00002   0.00745
  12        2S          0.00439  -0.00201   0.00392   0.00013  -0.03088
  13        2PX         0.01346   0.00011   0.00183  -0.00000   0.04614
  14        2PY         0.00606  -0.00187   0.00123   0.00009   0.00076
  15        2PZ        -0.04873   0.45694  -0.35932  -0.02630  -0.00135
  16 4   C  1S          0.00451  -0.00000   0.00441  -0.00000   0.00494
  17        2S         -0.01685   0.00001  -0.01313   0.00000  -0.02345
  18        2PX        -0.04244  -0.00001  -0.01889  -0.00000   0.01236
  19        2PY         0.00006   0.00009   0.00002   0.00007   0.00000
  20        2PZ         0.31002  -0.00001  -0.23397   0.00002  -0.00028
  21 5   C  1S         -0.00114  -0.00037  -0.00089   0.00002   0.00744
  22        2S          0.00444   0.00199   0.00399  -0.00014  -0.03087
  23        2PX         0.01353  -0.00013   0.00186   0.00000   0.04614
  24        2PY        -0.00617  -0.00188  -0.00131   0.00009  -0.00076
  25        2PZ        -0.04875  -0.45690  -0.35937   0.02634  -0.00134
  26 6   C  1S          0.00164   0.00029   0.00067  -0.00000  -0.00527
  27        2S         -0.00590  -0.00094  -0.00281   0.00001   0.02084
  28        2PX        -0.01616  -0.00240  -0.00392   0.00008  -0.03069
  29        2PY         0.00153   0.00070   0.00008   0.00002  -0.07541
  30        2PZ        -0.33984  -0.46286   0.08101   0.00408   0.00021
  31 7   H  1S          0.00738  -0.00096   0.00145   0.00004   0.04160
  32 8   H  1S          0.00732   0.00157   0.00241  -0.00007   0.03769
  33 9   H  1S          0.00726  -0.00157   0.00239   0.00007   0.03769
  34 10  H  1S          0.00746   0.00098   0.00148  -0.00005   0.04160
  35 11  N  1S         -0.02187   0.00000  -0.03136   0.00000   0.00121
  36        2S          0.09863   0.00000   0.15420  -0.00001  -0.00670
  37        2PX         0.06369  -0.00000   0.06937  -0.00000  -0.00141
  38        2PY        -0.00020  -0.00394  -0.00022   0.00029  -0.00000
  39        2PZ         0.49150  -0.00004   0.67095  -0.00004   0.00325
  40 12  H  1S         -0.01089  -0.00298  -0.04959   0.00024   0.00297
  41 13  H  1S         -0.01098   0.00297  -0.04956  -0.00024   0.00296
  42 14  N  1S          0.00061  -0.00000   0.00019   0.00000  -0.00535
  43        2S         -0.00312  -0.00000  -0.00104  -0.00000   0.03182
  44        2PX        -0.00622  -0.00000  -0.00121  -0.00000  -0.01028
  45        2PY         0.00001   0.00005   0.00000   0.00003  -0.00001
  46        2PZ         0.15840   0.00000  -0.03184   0.00003  -0.00006
  47 15  O  1S          0.00043   0.00002   0.00004   0.00002   0.00334
  48        2S         -0.00205  -0.00010  -0.00018  -0.00009  -0.01276
  49        2PX        -0.00098   0.00022  -0.00191  -0.00038   0.64757
  50        2PY        -0.00258   0.00008  -0.00092  -0.00021   0.15653
  51        2PZ         0.13951  -0.02169  -0.13807  -0.71024  -0.00095
  52 16  O  1S          0.00043  -0.00002   0.00004  -0.00002   0.00334
  53        2S         -0.00205   0.00009  -0.00018   0.00009  -0.01277
  54        2PX        -0.00098  -0.00020  -0.00191   0.00034   0.64749
  55        2PY         0.00264   0.00009   0.00085  -0.00007  -0.15642
  56        2PZ         0.13948   0.02169  -0.13798   0.71028  -0.00087
                          36        37        38        39        40
                           O         V         V         V         V
     Eigenvalues --    -0.05085   0.02826   0.05330   0.09916   0.20664
   1 1   C  1S         -0.00000  -0.00021   0.00000   0.00044  -0.00439
   2        2S          0.00002   0.00115  -0.00002  -0.00239   0.02319
   3        2PX        -0.00002  -0.00008   0.00001   0.00004  -0.01970
   4        2PY         0.00078   0.00001  -0.00061  -0.00003  -0.00001
   5        2PZ         0.00001  -0.35247   0.00001   0.48583   0.55836
   6 2   C  1S         -0.01310  -0.00011  -0.00014   0.00011   0.00322
   7        2S          0.06140   0.00044   0.00074  -0.00051  -0.01732
   8        2PX        -0.03343   0.00176  -0.00074  -0.00102  -0.01985
   9        2PY        -0.00208  -0.00041  -0.00012   0.00077  -0.00220
  10        2PZ        -0.00007   0.32982  -0.56709  -0.13322  -0.49801
  11 3   C  1S          0.00620  -0.00007   0.00093   0.00013  -0.00423
  12        2S         -0.02804   0.00016  -0.00537  -0.00012   0.02137
  13        2PX         0.02922   0.00063  -0.00012  -0.00183  -0.00544
  14        2PY        -0.00298  -0.00253  -0.00303   0.00480  -0.00562
  15        2PZ        -0.00027   0.07580   0.57115  -0.30688   0.46310
  16 4   C  1S         -0.00000   0.00009   0.00000   0.00081   0.00580
  17        2S          0.00000   0.00406  -0.00001  -0.00978  -0.02420
  18        2PX        -0.00000   0.00335  -0.00001  -0.00584  -0.04283
  19        2PY        -0.01221  -0.00001  -0.00441   0.00001  -0.00001
  20        2PZ        -0.00002  -0.41525   0.00003   0.55830  -0.46840
  21 5   C  1S         -0.00620  -0.00008  -0.00093   0.00014  -0.00424
  22        2S          0.02804   0.00019   0.00534  -0.00017   0.02145
  23        2PX        -0.02923   0.00066   0.00008  -0.00187  -0.00540
  24        2PY        -0.00297   0.00250  -0.00304  -0.00478   0.00561
  25        2PZ         0.00026   0.07576  -0.57114  -0.30689   0.46312
  26 6   C  1S          0.01310  -0.00011   0.00014   0.00011   0.00322
  27        2S         -0.06140   0.00044  -0.00076  -0.00047  -0.01731
  28        2PX         0.03343   0.00176   0.00077  -0.00103  -0.01990
  29        2PY        -0.00207   0.00035  -0.00018  -0.00078   0.00226
  30        2PZ         0.00010   0.32990   0.56703  -0.13324  -0.49803
  31 7   H  1S         -0.00589  -0.00075  -0.00107   0.00155  -0.00308
  32 8   H  1S          0.00750  -0.00051   0.00192   0.00112   0.00325
  33 9   H  1S         -0.00751  -0.00050  -0.00188   0.00114   0.00320
  34 10  H  1S          0.00588  -0.00073   0.00110   0.00154  -0.00311
  35 11  N  1S         -0.00000  -0.01500  -0.00000   0.01901  -0.04774
  36        2S          0.00000   0.08284   0.00003  -0.11143   0.30269
  37        2PX         0.00000   0.04279  -0.00001  -0.06310   0.11933
  38        2PY         0.00143  -0.00010  -0.01185   0.00012  -0.00012
  39        2PZ         0.00001   0.26511  -0.00004  -0.25045   0.09581
  40 12  H  1S         -0.00468  -0.04592  -0.01023   0.07434  -0.21799
  41 13  H  1S          0.00467  -0.04584   0.01020   0.07420  -0.21779
  42 14  N  1S          0.00000   0.00006  -0.00000  -0.00011   0.00492
  43        2S         -0.00000  -0.00033   0.00002   0.00069  -0.03026
  44        2PX        -0.00001  -0.00049   0.00002   0.00025  -0.01778
  45        2PY         0.00962  -0.00004  -0.00003  -0.00006  -0.00003
  46        2PZ        -0.00000  -0.42232   0.00002  -0.52891  -0.23209
  47 15  O  1S          0.00092  -0.00002   0.00000   0.00002  -0.00062
  48        2S         -0.00687   0.00010  -0.00000  -0.00011   0.00379
  49        2PX         0.49910   0.00070   0.00001  -0.00036   0.00957
  50        2PY         0.51754   0.00020  -0.00013   0.00005  -0.00591
  51        2PZ        -0.00040   0.48626  -0.01611   0.38529   0.11382
  52 16  O  1S         -0.00092  -0.00002  -0.00000   0.00002  -0.00061
  53        2S          0.00686   0.00011   0.00000  -0.00011   0.00378
  54        2PX        -0.49922   0.00072  -0.00002  -0.00039   0.00955
  55        2PY         0.51759  -0.00011  -0.00014   0.00001   0.00592
  56        2PZ         0.00029   0.48626   0.01607   0.38528   0.11382
                          41        42        43        44        45
                           V         V         V         V         V
     Eigenvalues --     0.23752   0.24538   0.28707   0.31920   0.35345
   1 1   C  1S         -0.03859   0.10701   0.00001   0.03829  -0.00007
   2        2S          0.20892  -0.59488  -0.00008  -0.21559   0.00043
   3        2PX        -0.24420   0.62851   0.00003   0.27509   0.00012
   4        2PY         0.00002   0.00000   0.17075  -0.00009  -0.40457
   5        2PZ        -0.10461  -0.01600   0.00002  -0.01401   0.00000
   6 2   C  1S          0.02210   0.01474   0.02476  -0.04796   0.02532
   7        2S         -0.12041  -0.09835  -0.14536   0.29273  -0.14763
   8        2PX        -0.13853   0.11187  -0.04218   0.04090  -0.14065
   9        2PY        -0.02430   0.21473   0.21747  -0.08330  -0.43849
  10        2PZ         0.10486   0.01552  -0.00545   0.01620  -0.00227
  11 3   C  1S         -0.02857   0.03576  -0.03203  -0.05983  -0.07894
  12        2S          0.15408  -0.21028   0.18775   0.36529   0.49024
  13        2PX        -0.08799   0.06799   0.02339   0.41837   0.06302
  14        2PY         0.01188   0.15134   0.39040  -0.22524  -0.29247
  15        2PZ        -0.12829  -0.02245   0.01229  -0.03378   0.00686
  16 4   C  1S          0.05064   0.03865  -0.00000  -0.01730  -0.00005
  17        2S         -0.26827  -0.22094   0.00002   0.10948   0.00033
  18        2PX        -0.32969  -0.13469   0.00008   0.49528  -0.00005
  19        2PY         0.00003   0.00001   0.42276  -0.00004   0.01729
  20        2PZ         0.17894   0.03110  -0.00011   0.07683  -0.00008
  21 5   C  1S         -0.02856   0.03577   0.03203  -0.05981   0.07898
  22        2S          0.15404  -0.21030  -0.18774   0.36517  -0.49045
  23        2PX        -0.08804   0.06799  -0.02326   0.41846  -0.06322
  24        2PY        -0.01185  -0.15136   0.39042   0.22519  -0.29224
  25        2PZ        -0.12826  -0.02240  -0.01218  -0.03383  -0.00674
  26 6   C  1S          0.02210   0.01474  -0.02479  -0.04799  -0.02522
  27        2S         -0.12042  -0.09835   0.14551   0.29288   0.14700
  28        2PX        -0.13852   0.11184   0.04222   0.04096   0.14088
  29        2PY         0.02433  -0.21479   0.21745   0.08316  -0.43833
  30        2PZ         0.10486   0.01544   0.00543   0.01623   0.00216
  31 7   H  1S         -0.03674   0.37203   0.28660  -0.19630  -0.35767
  32 8   H  1S          0.03353   0.26750   0.21333  -0.59262  -0.55283
  33 9   H  1S          0.03355   0.26753  -0.21341  -0.59254   0.55285
  34 10  H  1S         -0.03676   0.37205  -0.28664  -0.19622   0.35797
  35 11  N  1S         -0.17026  -0.06110   0.00000   0.00771   0.00001
  36        2S          1.09729   0.39409  -0.00001  -0.04646  -0.00004
  37        2PX         0.20302  -0.02075   0.00008   0.59686   0.00009
  38        2PY         0.00014   0.00001   0.75835  -0.00006   0.46176
  39        2PZ        -0.30194  -0.08742   0.00032  -0.07469   0.00018
  40 12  H  1S         -0.72052  -0.22212   0.66107  -0.24691   0.38745
  41 13  H  1S         -0.72059  -0.22210  -0.66113  -0.24677  -0.38748
  42 14  N  1S          0.05106  -0.13498  -0.00001  -0.05732   0.00001
  43        2S         -0.31827   0.84470   0.00006   0.36602  -0.00008
  44        2PX        -0.16527   0.41204   0.00003   0.10983  -0.00008
  45        2PY         0.00002  -0.00004   0.05642  -0.00008  -0.26439
  46        2PZ         0.03874   0.00448  -0.00002   0.00367   0.00004
  47 15  O  1S         -0.00730   0.02252   0.00286   0.01041  -0.01710
  48        2S          0.04509  -0.13651  -0.02057  -0.06703   0.11397
  49        2PX         0.09214  -0.25876  -0.02815  -0.08068   0.14554
  50        2PY        -0.06837   0.18015   0.04330   0.11311  -0.14281
  51        2PZ        -0.01752  -0.00202  -0.00006  -0.00142  -0.00009
  52 16  O  1S         -0.00731   0.02253  -0.00286   0.01042   0.01710
  53        2S          0.04511  -0.13654   0.02055  -0.06709  -0.11396
  54        2PX         0.09217  -0.25882   0.02811  -0.08077  -0.14549
  55        2PY         0.06839  -0.18020   0.04328  -0.11319  -0.14282
  56        2PZ        -0.01753  -0.00198   0.00007  -0.00140   0.00011
                          46        47        48        49        50
                           V         V         V         V         V
     Eigenvalues --     0.37409   0.38978   0.40468   0.43820   0.45521
   1 1   C  1S         -0.14581  -0.07225   0.00001   0.07336  -0.00003
   2        2S          0.87742   0.45958  -0.00008  -0.46504   0.00017
   3        2PX         0.15524   0.21519   0.00006   0.02026   0.00001
   4        2PY         0.00007   0.00005   0.43203  -0.00008   0.18126
   5        2PZ         0.00009  -0.00795   0.00004  -0.00095   0.00003
   6 2   C  1S          0.13570   0.00853  -0.13850  -0.04613   0.02601
   7        2S         -0.82762  -0.06413   0.87843   0.29304  -0.15651
   8        2PX         0.39747   0.28163  -0.01175   0.08343  -0.23532
   9        2PY         0.04018  -0.21446  -0.14173   0.12451   0.27441
  10        2PZ        -0.00162   0.00931  -0.00125   0.00119   0.00049
  11 3   C  1S         -0.05460   0.12487   0.07517   0.02074  -0.10496
  12        2S          0.32127  -0.77212  -0.46247  -0.13011   0.68444
  13        2PX         0.08502  -0.20710   0.26988   0.16392   0.12596
  14        2PY        -0.05076  -0.25853  -0.07080   0.15088  -0.24614
  15        2PZ         0.00111  -0.02540   0.00059  -0.00517   0.00131
  16 4   C  1S          0.03216  -0.21201  -0.00004   0.01051   0.00000
  17        2S         -0.18964   1.30874   0.00022  -0.07772  -0.00001
  18        2PX         0.18533   0.00466   0.00014   0.21207  -0.00013
  19        2PY         0.00001   0.00006  -0.25747   0.00029   0.41241
  20        2PZ         0.00109   0.05811  -0.00002   0.01397  -0.00001
  21 5   C  1S         -0.05463   0.12486  -0.07513   0.02091   0.10492
  22        2S          0.32145  -0.77210   0.46224  -0.13121  -0.68419
  23        2PX         0.08512  -0.20695  -0.26982   0.16393  -0.12610
  24        2PY         0.05096   0.25870  -0.07073  -0.15118  -0.24596
  25        2PZ         0.00110  -0.02537  -0.00056  -0.00517  -0.00128
  26 6   C  1S          0.13570   0.00850   0.13847  -0.04624  -0.02596
  27        2S         -0.82761  -0.06390  -0.87830   0.29368   0.15624
  28        2PX         0.39743   0.28161   0.01187   0.08376   0.23516
  29        2PY        -0.03999   0.21475  -0.14176  -0.12433   0.27450
  30        2PZ        -0.00166   0.00932   0.00119   0.00117  -0.00050
  31 7   H  1S          0.66139  -0.02667  -0.54209   0.00093   0.18890
  32 8   H  1S         -0.27372   0.27950   0.05054   0.10788  -0.52127
  33 9   H  1S         -0.27402   0.27925  -0.05051   0.10859   0.52107
  34 10  H  1S          0.66119  -0.02705   0.54211   0.00062  -0.18893
  35 11  N  1S          0.00898   0.03207   0.00001   0.00489  -0.00000
  36        2S         -0.06260  -0.20445  -0.00007  -0.03364   0.00003
  37        2PX         0.03422   0.61035   0.00021   0.15024  -0.00013
  38        2PY        -0.00011  -0.00018   0.33484  -0.00017  -0.21114
  39        2PZ         0.00898  -0.04514   0.00008  -0.01320  -0.00003
  40 12  H  1S          0.02027  -0.17331   0.22151  -0.05872  -0.10911
  41 13  H  1S          0.02045  -0.17301  -0.22164  -0.05854   0.10922
  42 14  N  1S          0.05209   0.00551   0.00001   0.10944  -0.00008
  43        2S         -0.33443  -0.03439  -0.00007  -0.70472   0.00050
  44        2PX        -0.03768   0.00143   0.00019   0.85359  -0.00048
  45        2PY         0.00013   0.00007   0.45986   0.00031   0.69987
  46        2PZ         0.00006   0.00193  -0.00006  -0.00037  -0.00008
  47 15  O  1S         -0.01125  -0.00276   0.03257  -0.06298   0.04239
  48        2S          0.07428   0.01593  -0.21279   0.41626  -0.28814
  49        2PX         0.06791   0.01942  -0.25185   0.13119  -0.30167
  50        2PY        -0.13361  -0.01060   0.19918  -0.64113   0.31914
  51        2PZ        -0.00002  -0.00067   0.00009   0.00001   0.00009
  52 16  O  1S         -0.01127  -0.00277  -0.03259  -0.06302  -0.04231
  53        2S          0.07438   0.01598   0.21293   0.41648   0.28760
  54        2PX         0.06803   0.01947   0.25187   0.13144   0.30147
  55        2PY         0.13375   0.01067   0.19941   0.64140   0.31837
  56        2PZ        -0.00004  -0.00067  -0.00013  -0.00012  -0.00014
                          51        52        53        54        55
                           V         V         V         V         V
     Eigenvalues --     0.51082   0.53046   0.53986   0.56791   0.68783
   1 1   C  1S          0.03195  -0.00011  -0.09005  -0.00003   0.00003
   2        2S         -0.23263   0.00077   0.62908   0.00019  -0.00017
   3        2PX        -0.71065   0.00007   0.06090   0.00018  -0.00029
   4        2PY         0.00010   0.09407  -0.00019   0.69315   0.86110
   5        2PZ        -0.00063   0.00001   0.00105   0.00000   0.00003
   6 2   C  1S         -0.03006   0.00569  -0.05248  -0.08624  -0.01058
   7        2S          0.20000  -0.03899   0.36358   0.61003   0.07966
   8        2PX         0.15379  -0.60167   0.56549  -0.00412  -0.61979
   9        2PY         0.37853  -0.40114  -0.47327   0.20765   0.42145
  10        2PZ         0.00296   0.00239  -0.00342  -0.00058   0.00229
  11 3   C  1S          0.01155  -0.06114   0.05479  -0.03408  -0.00544
  12        2S         -0.07641   0.42372  -0.37859   0.24541   0.04277
  13        2PX         0.05209  -0.34300   0.58977   0.55671  -0.54890
  14        2PY         0.45545   0.51372   0.35547   0.10687  -0.37106
  15        2PZ        -0.01054   0.00066   0.00161  -0.00053   0.00113
  16 4   C  1S          0.00997   0.00012   0.09158   0.00000  -0.00002
  17        2S         -0.09569  -0.00079  -0.62735   0.00001   0.00012
  18        2PX         0.81333  -0.00035  -0.18705  -0.00020  -0.00029
  19        2PY         0.00022   0.47828  -0.00065   0.71193  -0.65861
  20        2PZ         0.03731   0.00000  -0.01324   0.00001  -0.00001
  21 5   C  1S          0.01160   0.06128   0.05463   0.03408   0.00550
  22        2S         -0.07670  -0.42468  -0.37748  -0.24546  -0.04315
  23        2PX         0.05184   0.34439   0.58896  -0.55660   0.54924
  24        2PY        -0.45543   0.51287  -0.35680   0.10708  -0.37064
  25        2PZ        -0.01053  -0.00068   0.00159   0.00054  -0.00115
  26 6   C  1S         -0.03003  -0.00582  -0.05247   0.08625   0.01053
  27        2S          0.19980   0.03987   0.36352  -0.61012  -0.07928
  28        2PX         0.15387   0.60298   0.56400   0.00423   0.62016
  29        2PY        -0.37858  -0.39998   0.47416   0.20794   0.42094
  30        2PZ         0.00291  -0.00245  -0.00340   0.00061  -0.00228
  31 7   H  1S          0.22515  -0.48149  -0.23913  -0.08894   0.01004
  32 8   H  1S          0.32346   0.31954   0.16003  -0.20455  -0.05041
  33 9   H  1S          0.32366  -0.31913   0.16084   0.20436   0.05021
  34 10  H  1S          0.22529   0.48086  -0.24029   0.08883  -0.00979
  35 11  N  1S          0.03811  -0.00005  -0.03617  -0.00001  -0.00001
  36        2S         -0.27113   0.00036   0.25561   0.00006   0.00010
  37        2PX         0.50819  -0.00042  -0.26563  -0.00013  -0.00010
  38        2PY        -0.00008  -0.30036   0.00041  -0.25978   0.19083
  39        2PZ        -0.01392  -0.00008  -0.01349  -0.00005   0.00003
  40 12  H  1S         -0.11306  -0.17891  -0.01439  -0.14320   0.10253
  41 13  H  1S         -0.11296   0.17892  -0.01488   0.14327  -0.10253
  42 14  N  1S          0.00631   0.00000   0.00615   0.00001   0.00001
  43        2S         -0.05604  -0.00003  -0.04571  -0.00007  -0.00009
  44        2PX        -0.45402  -0.00025  -0.17653   0.00013  -0.00006
  45        2PY        -0.00018   0.10161  -0.00004  -0.64811  -0.34152
  46        2PZ         0.00081  -0.00001  -0.00004   0.00005   0.00002
  47 15  O  1S          0.01666   0.00693   0.00251  -0.03583  -0.01810
  48        2S         -0.11196  -0.04666  -0.02220   0.24954   0.12716
  49        2PX         0.00353  -0.04267   0.02802   0.22438   0.10497
  50        2PY         0.16294   0.03527   0.06523  -0.26071  -0.11957
  51        2PZ        -0.00018   0.00002   0.00001  -0.00005  -0.00001
  52 16  O  1S          0.01668  -0.00692   0.00252   0.03581   0.01810
  53        2S         -0.11209   0.04657  -0.02224  -0.24942  -0.12714
  54        2PX         0.00339   0.04273   0.02798  -0.22434  -0.10495
  55        2PY        -0.16308   0.03506  -0.06524  -0.26056  -0.11956
  56        2PZ        -0.00015  -0.00003   0.00002   0.00011   0.00005
                          56
                           V
     Eigenvalues --     0.72096
   1 1   C  1S         -0.06546
   2        2S          0.49035
   3        2PX         0.63128
   4        2PY         0.00041
   5        2PZ        -0.00168
   6 2   C  1S          0.06409
   7        2S         -0.46799
   8        2PX        -0.36136
   9        2PY        -0.57381
  10        2PZ         0.00189
  11 3   C  1S         -0.06071
  12        2S          0.44323
  13        2PX        -0.37011
  14        2PY         0.55597
  15        2PZ        -0.00032
  16 4   C  1S          0.04794
  17        2S         -0.36103
  18        2PX         0.68973
  19        2PY        -0.00026
  20        2PZ         0.01378
  21 5   C  1S         -0.06071
  22        2S          0.44317
  23        2PX        -0.36962
  24        2PY        -0.55624
  25        2PZ        -0.00031
  26 6   C  1S          0.06410
  27        2S         -0.46807
  28        2PX        -0.36077
  29        2PY         0.57422
  30        2PZ         0.00195
  31 7   H  1S         -0.27343
  32 8   H  1S          0.27356
  33 9   H  1S          0.27357
  34 10  H  1S         -0.27344
  35 11  N  1S          0.02550
  36        2S         -0.19731
  37        2PX         0.24196
  38        2PY         0.00007
  39        2PZ         0.00616
  40 12  H  1S         -0.02502
  41 13  H  1S         -0.02509
  42 14  N  1S         -0.01582
  43        2S          0.12030
  44        2PX         0.16973
  45        2PY        -0.00013
  46        2PZ        -0.00009
  47 15  O  1S         -0.00275
  48        2S          0.01940
  49        2PX        -0.01263
  50        2PY        -0.02201
  51        2PZ         0.00000
  52 16  O  1S         -0.00274
  53        2S          0.01930
  54        2PX        -0.01271
  55        2PY         0.02192
  56        2PZ        -0.00000
     Density Matrix:
                           1         2         3         4         5
   1 1   C  1S          2.06610
   2        2S         -0.20901   0.88162
   3        2PX        -0.00670  -0.01282   0.52540
   4        2PY        -0.00000  -0.00000  -0.00000   0.62044
   5        2PZ         0.00001   0.00009   0.00083  -0.00001   0.88608
   6 2   C  1S          0.02664  -0.07121  -0.04962   0.09944   0.00002
   7        2S         -0.07120   0.10162   0.11596  -0.24086  -0.00002
   8        2PX         0.06301  -0.16379  -0.06705   0.21638   0.00190
   9        2PY        -0.10020   0.25033   0.20775  -0.34507  -0.00050
  10        2PZ        -0.00024   0.00074   0.00128  -0.00091   0.47073
  11 3   C  1S         -0.00519   0.01629   0.01395  -0.01281  -0.00022
  12        2S          0.01614  -0.03958  -0.05647   0.03915   0.00114
  13        2PX        -0.02539   0.09119   0.04740  -0.05764  -0.00089
  14        2PY         0.01076  -0.04941  -0.00807   0.03502  -0.00106
  15        2PZ         0.00017  -0.00061  -0.00072   0.00004  -0.14338
  16 4   C  1S         -0.00441   0.01489   0.01501  -0.00000   0.00083
  17        2S          0.01542  -0.05075  -0.05940   0.00001  -0.00067
  18        2PX        -0.01311   0.04726   0.04396  -0.00000   0.00043
  19        2PY        -0.00000   0.00000   0.00000  -0.06071  -0.00001
  20        2PZ         0.00013  -0.00060  -0.00092   0.00002  -0.29128
  21 5   C  1S         -0.00519   0.01629   0.01395   0.01281  -0.00023
  22        2S          0.01614  -0.03959  -0.05647  -0.03914   0.00116
  23        2PX        -0.02540   0.09121   0.04740   0.05764  -0.00088
  24        2PY        -0.01076   0.04941   0.00806   0.03502   0.00104
  25        2PZ         0.00017  -0.00060  -0.00072  -0.00002  -0.14339
  26 6   C  1S          0.02664  -0.07121  -0.04962  -0.09944   0.00002
  27        2S         -0.07121   0.10161   0.11595   0.24086  -0.00001
  28        2PX         0.06302  -0.16381  -0.06705  -0.21640   0.00189
  29        2PY         0.10020  -0.25033  -0.20774  -0.34506   0.00042
  30        2PZ        -0.00024   0.00073   0.00127   0.00085   0.47077
  31 7   H  1S          0.02613  -0.10051  -0.01620   0.12619  -0.00024
  32 8   H  1S         -0.01947   0.07346   0.04661  -0.08627  -0.00032
  33 9   H  1S         -0.01947   0.07347   0.04660   0.08626  -0.00030
  34 10  H  1S          0.02613  -0.10050  -0.01619  -0.12619  -0.00024
  35 11  N  1S         -0.00030   0.00158  -0.00137   0.00000  -0.01238
  36        2S          0.00265  -0.01171   0.00258  -0.00001   0.06494
  37        2PX         0.00204  -0.00640  -0.01719   0.00000   0.02821
  38        2PY         0.00000  -0.00000  -0.00000  -0.00537  -0.00008
  39        2PZ        -0.00049   0.00177  -0.00008  -0.00002   0.25680
  40 12  H  1S         -0.00040   0.00081  -0.00038  -0.00739  -0.02887
  41 13  H  1S         -0.00040   0.00081  -0.00038   0.00740  -0.02883
  42 14  N  1S          0.01489  -0.02742   0.07674   0.00000  -0.00016
  43        2S         -0.04126   0.00215  -0.23206  -0.00001   0.00059
  44        2PX        -0.08734   0.19361  -0.41016  -0.00001   0.00099
  45        2PY        -0.00000   0.00000  -0.00001   0.01368   0.00001
  46        2PZ         0.00008  -0.00016   0.00061  -0.00000   0.12526
  47 15  O  1S         -0.00166   0.00198  -0.00461   0.01234  -0.00001
  48        2S          0.00379   0.00798   0.00998  -0.05270   0.00008
  49        2PX         0.07046  -0.33041   0.34330  -0.00384  -0.00053
  50        2PY         0.00013  -0.02354  -0.01415   0.04378   0.00001
  51        2PZ        -0.00003   0.00017  -0.00055  -0.00002  -0.13002
  52 16  O  1S         -0.00166   0.00198  -0.00461  -0.01234  -0.00001
  53        2S          0.00379   0.00799   0.00997   0.05269   0.00006
  54        2PX         0.07045  -0.33041   0.34330   0.00385  -0.00053
  55        2PY        -0.00013   0.02353   0.01416   0.04378  -0.00006
  56        2PZ        -0.00003   0.00017  -0.00055   0.00001  -0.13001
                           6         7         8         9        10
   6 2   C  1S          2.06593
   7        2S         -0.19985   0.82131
   8        2PX         0.00294  -0.01681   0.60665
   9        2PY         0.00796  -0.04027   0.02085   0.61911
  10        2PZ        -0.00015   0.00071   0.00161   0.00003   0.78138
  11 3   C  1S          0.02598  -0.06861  -0.11848  -0.00242   0.00091
  12        2S         -0.06800   0.08953   0.29741   0.01435  -0.00352
  13        2PX         0.11638  -0.29062  -0.45939   0.00186   0.00244
  14        2PY        -0.00313   0.01746   0.00445   0.02389  -0.00179
  15        2PZ        -0.00058   0.00176   0.00341  -0.00042   0.53748
  16 4   C  1S         -0.00515   0.01605   0.02487   0.01106  -0.00092
  17        2S          0.01688  -0.04339  -0.09330  -0.05050   0.00361
  18        2PX        -0.01436   0.05406   0.05247   0.01696   0.00310
  19        2PY        -0.01276   0.03769   0.05881   0.03914  -0.00096
  20        2PZ         0.00041  -0.00224  -0.00166   0.00062  -0.03464
  21 5   C  1S         -0.00394   0.01319   0.00558   0.01125  -0.00028
  22        2S          0.01302  -0.04234  -0.02060  -0.04172   0.00148
  23        2PX        -0.00515   0.01928  -0.02277   0.03943  -0.00027
  24        2PY        -0.01055   0.03887   0.03808   0.01714  -0.00084
  25        2PZ         0.00024  -0.00075  -0.00172  -0.00039  -0.30895
  26 6   C  1S         -0.00540   0.01748  -0.00147   0.02355  -0.00000
  27        2S          0.01748  -0.04848  -0.00283  -0.08750   0.00011
  28        2PX        -0.00147  -0.00283   0.00983   0.02327  -0.00032
  29        2PY        -0.02355   0.08749  -0.02328   0.08996   0.00019
  30        2PZ        -0.00000   0.00011  -0.00032  -0.00018  -0.07570
  31 7   H  1S         -0.11547   0.29270  -0.26704  -0.46664  -0.00004
  32 8   H  1S          0.02791  -0.10349  -0.10420   0.06007   0.00109
  33 9   H  1S         -0.00282   0.01089   0.01072   0.00570  -0.00156
  34 10  H  1S         -0.01762   0.06695  -0.03958   0.08631   0.00020
  35 11  N  1S          0.00298  -0.00994  -0.01540  -0.00118   0.00350
  36        2S         -0.01356   0.04314   0.07597   0.00595  -0.01570
  37        2PX         0.01337  -0.05103  -0.06852  -0.00539  -0.00412
  38        2PY         0.00413  -0.01921  -0.01497   0.00505  -0.00340
  39        2PZ         0.00249  -0.00970  -0.01396   0.00052  -0.07900
  40 12  H  1S         -0.00119   0.00382  -0.00059   0.00812  -0.00061
  41 13  H  1S          0.00918  -0.03499  -0.04635  -0.00642   0.00555
  42 14  N  1S         -0.00446   0.01351  -0.02165   0.00887   0.00002
  43        2S          0.01914  -0.05181   0.10234  -0.03904  -0.00005
  44        2PX         0.02318  -0.08059   0.09193  -0.04271  -0.00012
  45        2PY        -0.01126   0.04644  -0.01960   0.02447   0.00004
  46        2PZ         0.00000  -0.00005  -0.00053   0.00016  -0.05887
  47 15  O  1S          0.00031   0.00182   0.00348  -0.00140   0.00000
  48        2S          0.00020  -0.01556  -0.01341   0.00443  -0.00001
  49        2PX        -0.02333   0.10614  -0.05220   0.10050   0.00005
  50        2PY         0.00187   0.00824   0.02266  -0.02414  -0.00016
  51        2PZ         0.00001   0.00000  -0.00027  -0.00007  -0.12073
  52 16  O  1S         -0.00130   0.00342  -0.00222  -0.00600   0.00000
  53        2S          0.00448  -0.00989   0.00836   0.02790  -0.00000
  54        2PX         0.01306  -0.05987   0.02216   0.04129  -0.00008
  55        2PY        -0.00687   0.04189  -0.00488  -0.04553  -0.00004
  56        2PZ        -0.00002   0.00013  -0.00030  -0.00003  -0.09219
                          11        12        13        14        15
  11 3   C  1S          2.06484
  12        2S         -0.19619   0.80709
  13        2PX        -0.00240   0.01408   0.59802
  14        2PY         0.00706  -0.03456  -0.02153   0.58529
  15        2PZ         0.00084  -0.00381   0.00036   0.00100   0.87293
  16 4   C  1S          0.02574  -0.06831  -0.06001  -0.09945  -0.00095
  17        2S         -0.07002   0.10129   0.15524   0.26361   0.00058
  18        2PX         0.05213  -0.12047  -0.08285  -0.19433  -0.00295
  19        2PY         0.10003  -0.24639  -0.22134  -0.34310  -0.00067
  20        2PZ         0.00007   0.00036   0.00060   0.00093   0.43589
  21 5   C  1S         -0.00538   0.01787   0.00201   0.02346  -0.00015
  22        2S          0.01787  -0.05053  -0.00020  -0.08945   0.00055
  23        2PX         0.00201  -0.00020   0.00906  -0.02341   0.00138
  24        2PY        -0.02346   0.08944   0.02341   0.08851  -0.00180
  25        2PZ        -0.00016   0.00059   0.00139   0.00183   0.03506
  26 6   C  1S         -0.00394   0.01302  -0.00515   0.01055   0.00023
  27        2S          0.01319  -0.04233   0.01927  -0.03887  -0.00073
  28        2PX         0.00558  -0.02060  -0.02277  -0.03808  -0.00173
  29        2PY        -0.01125   0.04171  -0.03942   0.01714   0.00042
  30        2PZ        -0.00029   0.00150  -0.00025   0.00085  -0.30895
  31 7   H  1S          0.02785  -0.10277   0.10079   0.05171   0.00016
  32 8   H  1S         -0.11613   0.29071   0.27095  -0.47215  -0.00033
  33 9   H  1S         -0.01729   0.06497   0.04076   0.08219  -0.00011
  34 10  H  1S         -0.00234   0.00776  -0.00794   0.00518   0.00069
  35 11  N  1S         -0.00536   0.01693   0.02397   0.00646   0.01489
  36        2S          0.02231  -0.06383  -0.11071  -0.02456  -0.07936
  37        2PX        -0.01922   0.06788   0.07132   0.06043  -0.03049
  38        2PY        -0.01631   0.07088   0.03209   0.01522  -0.00352
  39        2PZ        -0.00316   0.01152   0.01191   0.00338  -0.32398
  40 12  H  1S          0.01245  -0.04819  -0.02681  -0.04142   0.03298
  41 13  H  1S         -0.02333   0.08691   0.07552   0.06995   0.03864
  42 14  N  1S          0.00262  -0.00838   0.01362  -0.00161  -0.00007
  43        2S         -0.01217   0.03696  -0.06802   0.00867   0.00034
  44        2PX        -0.01503   0.05593  -0.07812   0.00418   0.00034
  45        2PY         0.00244  -0.01149   0.00779   0.00359  -0.00006
  46        2PZ        -0.00004   0.00018   0.00001   0.00019  -0.03671
  47 15  O  1S         -0.00006  -0.00075  -0.00023   0.00102   0.00001
  48        2S         -0.00013   0.00543   0.00006  -0.00535  -0.00005
[...]
  53        2S          0.00000  -0.00000   0.00121  -0.00000  -0.00438
  54        2PX         0.00000  -0.00000   0.00000   0.00183   0.00000
  55        2PY         0.00000   0.00003  -0.00438  -0.00000  -0.02702
  56        2PZ         0.08722  -0.00000   0.00000  -0.00000  -0.00000
                          51        52        53        54        55
  51        2PZ         1.26758
  52 16  O  1S          0.00000   2.11453
  53        2S         -0.00000  -0.11613   2.18810
  54        2PX        -0.00000   0.00000   0.00000   1.55334
  55        2PY        -0.00000   0.00000   0.00000   0.00000   1.05897
  56        2PZ        -0.00773   0.00000   0.00000   0.00000   0.00000
                          56
  56        2PZ         1.26760
     Gross orbital populations:
                           1
   1 1   C  1S          1.99034
   2        2S          1.11635
   3        2PX         0.79388
   4        2PY         0.96460
   5        2PZ         1.09138
   6 2   C  1S          1.99028
   7        2S          1.15602
   8        2PX         0.96168
   9        2PY         0.97722
  10        2PZ         0.98907
  11 3   C  1S          1.99019
  12        2S          1.14290
  13        2PX         0.94980
  14        2PY         0.94504
  15        2PZ         1.06649
  16 4   C  1S          1.99021
  17        2S          1.10588
  18        2PX         0.82667
  19        2PY         0.98573
  20        2PZ         1.00419
  21 5   C  1S          1.99019
  22        2S          1.14290
  23        2PX         0.94980
  24        2PY         0.94503
  25        2PZ         1.06650
  26 6   C  1S          1.99028
  27        2S          1.15602
  28        2PX         0.96168
  29        2PY         0.97722
  30        2PZ         0.98907
  31 7   H  1S          0.90141
  32 8   H  1S          0.92470
  33 9   H  1S          0.92470
  34 10  H  1S          0.90141
  35 11  N  1S          1.99355
  36        2S          1.47183
  37        2PX         1.08183
  38        2PY         1.09534
  39        2PZ         1.70320
  40 12  H  1S          0.79239
  41 13  H  1S          0.79239
  42 14  N  1S          1.99403
  43        2S          1.39479
  44        2PX         1.13279
  45        2PY         1.02937
  46        2PZ         1.35254
  47 15  O  1S          1.99840
  48        2S          1.90737
  49        2PX         1.63775
  50        2PY         1.26520
  51        2PZ         1.34485
  52 16  O  1S          1.99840
  53        2S          1.90738
  54        2PX         1.63774
  55        2PY         1.26518
  56        2PZ         1.34486
          Condensed to atoms (all electrons):
               1          2          3          4          5          6
     1  C    4.875835   0.495865  -0.029705  -0.011708  -0.029709   0.495886
     2  C    0.495865   4.795112   0.512572  -0.027078  -0.010457  -0.029502
     3  C   -0.029705   0.512572   4.830734   0.484665  -0.027132  -0.010455
     4  C   -0.011708  -0.027078   0.484665   4.702521   0.484682  -0.027074
     5  C   -0.029709  -0.010457  -0.027132   0.484682   4.830748   0.512551
     6  C    0.495886  -0.029502  -0.010455  -0.027074   0.512551   4.795108
     7  H   -0.024681   0.386163  -0.023863   0.001366   0.000040   0.001329
     8  H    0.001462  -0.025118   0.388083  -0.024623   0.001258   0.000051
     9  H    0.001462   0.000051   0.001258  -0.024620   0.388081  -0.025123
    10  H   -0.024680   0.001329   0.000040   0.001365  -0.023862   0.386166
    11  N    0.000034   0.000600  -0.030471   0.413286  -0.030470   0.000600
    12  H    0.000001   0.000005  -0.003712  -0.030053   0.001864  -0.000035
    13  H    0.000001  -0.000035   0.001864  -0.030053  -0.003712   0.000005
    14  N    0.283322  -0.023224   0.000539   0.000006   0.000539  -0.023223
    15  O   -0.038418   0.000399  -0.000002  -0.000000  -0.000000  -0.002416
    16  O   -0.038413  -0.002416  -0.000000  -0.000000  -0.000002   0.000399
               7          8          9         10         11         12
     1  C   -0.024681   0.001462   0.001462  -0.024680   0.000034   0.000001
     2  C    0.386163  -0.025118   0.000051   0.001329   0.000600   0.000005
     3  C   -0.023863   0.388083   0.001258   0.000040  -0.030471  -0.003712
     4  C    0.001366  -0.024623  -0.024620   0.001365   0.413286  -0.030053
     5  C    0.000040   0.001258   0.388081  -0.023862  -0.030470   0.001864
     6  C    0.001329   0.000051  -0.025123   0.386166   0.000600  -0.000035
     7  H    0.565060  -0.004071   0.000002  -0.000034  -0.000009  -0.000002
     8  H   -0.004071   0.589014  -0.000036   0.000002  -0.002799   0.001447
     9  H    0.000002  -0.000036   0.589026  -0.004072  -0.002799   0.000035
    10  H   -0.000034   0.000002  -0.004072   0.565056  -0.000009   0.000001
    11  N   -0.000009  -0.002799  -0.002799  -0.000009   6.307503   0.345146
    12  H   -0.000002   0.001447   0.000035   0.000001   0.345146   0.506069
    13  H    0.000001   0.000035   0.001448  -0.000002   0.345146  -0.028373
    14  N   -0.002448  -0.000008  -0.000008  -0.002448   0.000000  -0.000000
    15  O    0.000024   0.000000   0.000001   0.002531   0.000000   0.000000
    16  O    0.002532   0.000001   0.000000   0.000024   0.000000   0.000000
              13         14         15         16
     1  C    0.000001   0.283322  -0.038418  -0.038413
     2  C   -0.000035  -0.023224   0.000399  -0.002416
     3  C    0.001864   0.000539  -0.000002  -0.000000
     4  C   -0.030053   0.000006  -0.000000  -0.000000
     5  C   -0.003712   0.000539  -0.000000  -0.000002
     6  C    0.000005  -0.023223  -0.002416   0.000399
     7  H    0.000001  -0.002448   0.000024   0.002532
     8  H    0.000035  -0.000008   0.000000   0.000001
     9  H    0.001448  -0.000008   0.000001   0.000000
    10  H   -0.000002  -0.002448   0.002531   0.000024
    11  N    0.345146   0.000000   0.000000   0.000000
    12  H   -0.028373  -0.000000   0.000000   0.000000
    13  H    0.506070  -0.000000   0.000000   0.000000
    14  N   -0.000000   6.107304   0.281589   0.281575
    15  O    0.000000   0.281589   7.950273  -0.040422
    16  O    0.000000   0.281575  -0.040422   7.950282
 Mulliken charges:
               1
     1  C    0.043448
     2  C   -0.074267
     3  C   -0.094416
     4  C    0.087317
     5  C   -0.094419
     6  C   -0.074269
     7  H    0.098592
     8  H    0.075302
     9  H    0.075296
    10  H    0.098593
    11  N   -0.345757
    12  H    0.207607
    13  H    0.207606
    14  N    0.096483
    15  O   -0.153558
    16  O   -0.153559
 Sum of Mulliken charges =  -0.00000
 Mulliken charges with hydrogens summed into heavy atoms:
               1
     1  C    0.043448
     2  C    0.024325
     3  C   -0.019114
     4  C    0.087317
     5  C   -0.019124
     6  C    0.024325
    11  N    0.069457
    14  N    0.096483
    15  O   -0.153558
    16  O   -0.153559
 Electronic spatial extent (au):  <R**2>=           1568.9517
 Charge=             -0.0000 electrons
 Dipole moment (field-independent basis, Debye):
    X=              5.9093    Y=              0.0003    Z=             -0.7056  Tot=              5.9513
 Quadrupole moment (field-independent basis, Debye-Ang):
   XX=            -47.5602   YY=            -49.2886   ZZ=            -53.3487
   XY=              0.0005   XZ=             -2.8113   YZ=              0.0014
 Traceless Quadrupole moment (field-independent basis, Debye-Ang):
   XX=              2.5057   YY=              0.7773   ZZ=             -3.2829
   XY=              0.0005   XZ=             -2.8113   YZ=              0.0014
 Octapole moment (field-independent basis, Debye-Ang**2):
  XXX=             73.1926  YYY=              0.0013  ZZZ=             -0.1570  XYY=              8.6924
  XXY=              0.0028  XXZ=            -11.0823  XZZ=            -13.3963  YZZ=             -0.0002
  YYZ=             -0.3799  XYZ=              0.0021
 Hexadecapole moment (field-independent basis, Debye-Ang**3):
 XXXX=          -1187.7925 YYYY=           -333.4502 ZZZZ=            -39.0024 XXXY=              0.0117
 XXXZ=            -43.4412 YYYX=              0.0015 YYYZ=              0.0012 ZZZX=             -0.8807
 ZZZY=             -0.0010 XXYY=           -267.6891 XXZZ=           -235.7835 YYZZ=            -68.9416
 XXYZ=              0.0155 YYXZ=             -1.6884 ZZXY=             -0.0006
 N-N= 4.919117644812D+02 E-N=-2.116966158813D+03  KE= 4.777817205045D+02
 Orbital energies and kinetic energies (alpha):
                                 1                 2
   1         O               -18.503459         28.622164
   2         O               -18.503402         28.624346
   3         O               -14.066961         21.645989
   4         O               -13.885532         21.639117
   5         O                -9.813466         15.578549
   6         O                -9.777667         15.575964
   7         O                -9.758458         15.574377
   8         O                -9.758416         15.576830
   9         O                -9.749261         15.578488
  10         O                -9.749210         15.580749
  11         O                -1.032041          2.135338
  12         O                -0.844719          2.454750
  13         O                -0.804268          1.656751
  14         O                -0.726277          1.504148
  15         O                -0.646642          1.687166
  16         O                -0.633908          1.520191
  17         O                -0.552051          1.763834
  18         O                -0.517456          1.315600
  19         O                -0.468918          1.444695
  20         O                -0.430333          1.305727
  21         O                -0.428837          1.247245
  22         O                -0.372397          1.612770
  23         O                -0.358073          1.904430
  24         O                -0.352095          1.849461
  25         O                -0.348805          1.387654
  26         O                -0.333525          1.210064
  27         O                -0.298950          1.615043
  28         O                -0.292531          2.207022
  29         O                -0.286438          1.242400
  30         O                -0.258633          1.574356
  31         O                -0.211726          1.466115
  32         O                -0.168123          1.321682
  33         O                -0.108284          1.763272
  34         O                -0.094256          2.559370
  35         O                -0.084035          2.502547
  36         O                -0.050846          2.642659
  37         V                 0.028264          2.366946
  38         V                 0.053298          1.820709
  39         V                 0.099163          2.409696
  40         V                 0.206636          2.271670
  41         V                 0.237519          2.723410
  42         V                 0.245379          3.078417
  43         V                 0.287066          2.275942
  44         V                 0.319197          2.551754
  45         V                 0.353452          2.485121
  46         V                 0.374090          3.008778
  47         V                 0.389781          3.565235
  48         V                 0.404681          3.263996
  49         V                 0.438199          4.255642
  50         V                 0.455213          3.400131
  51         V                 0.510819          3.158598
  52         V                 0.530457          2.894171
  53         V                 0.539857          3.298894
  54         V                 0.567906          3.637592
  55         V                 0.687834          3.493950
  56         V                 0.720958          3.640289
 Total kinetic energy from orbitals= 4.777817205045D+02
 Calling FoFJK, ICntrl=  10005527 FMM=F ISym2X=0 I1Cent= 0 IOpClX= 0 NMat=1 NMatS=1 NMatT=0.
 -------------------------------------------------------------------
 Center     Atomic                   Forces (Hartrees/Bohr)
 Number     Number              X              Y              Z
 -------------------------------------------------------------------
      1        6          -0.037044658   -0.000040248    0.000340899
      2        6           0.025072500   -0.039567712   -0.000356635
      3        6          -0.024438736   -0.021320372    0.000549932
      4        6          -0.012080769    0.000004779   -0.004153031
      5        6          -0.024451768    0.021343156    0.000548847
      6        6           0.025101756    0.039581653   -0.000355619
      7        1          -0.003939484   -0.006070038   -0.000163919
      8        1           0.005362998   -0.005396869   -0.000083512
      9        1           0.005371823    0.005386377   -0.000077680
     10        1          -0.003941510    0.006068999   -0.000167201
     11        7           0.052103811   -0.000003773    0.009133799
     12        1           0.001035226    0.004949181   -0.002621560
     13        1           0.001035346   -0.004946582   -0.002630634
     14        7           0.288969145   -0.000016423   -0.000172601
     15        8          -0.149093111    0.186076769    0.000088647
     16        8          -0.149062567   -0.186048898    0.000120269
 -------------------------------------------------------------------
 Cartesian Forces:  Max     0.288969145 RMS     0.065876591

 GradGradGradGradGradGradGradGradGradGradGradGradGradGradGradGradGradGrad
 Berny optimization.
 Search for a local minimum.
 Step number   1 out of a maximum of    2
 All quantities printed in internal units (Hartrees-Bohrs-Radians)
 Second derivative matrix not updated -- first step.
 ITU=  0
     Eigenvalues ---    0.00325   0.00461   0.01084   0.01281   0.01534
     Eigenvalues ---    0.01695   0.02005   0.03087   0.03915   0.05134
     Eigenvalues ---    0.06683   0.06754   0.06982   0.07965   0.09855
     Eigenvalues ---    0.10811   0.11086   0.11233   0.12252   0.13324
     Eigenvalues ---    0.17110   0.21513   0.25616   0.29180   0.30451
     Eigenvalues ---    0.31840   0.39929   0.43681   0.43735   0.56127
     Eigenvalues ---    0.66713   0.81306   0.96126   1.01991   1.12316
     Eigenvalues ---    1.23958   1.33277   1.43660   1.56108   1.61523
     Eigenvalues ---    1.75789   2.40726
 Quadratic step=7.570D-01 exceeds max=3.000D-01 adjusted using Lamda=-2.558D-01.
 Angle between NR and scaled steps=  40.41 degrees.
 Angle between quadratic step and forces=  26.99 degrees.
 Linear search not attempted -- first point.
 B after Tr=    -0.004353    0.000001    0.000862
         Rot=    1.000000   -0.000000    0.000187   -0.000000 Ang=  -0.02 deg.
 Variable       Old X    -DE/DX   Delta X   Delta X   Delta X     New X
                                 (Linear)    (Quad)   (Total)
    X1       -1.33859  -0.03704   0.00000   0.02870   0.02435  -1.31425
    Y1        0.00007  -0.00004   0.00000  -0.00003  -0.00003   0.00004
    Z1       -0.00096   0.00034   0.00000  -0.00042  -0.00005  -0.00101
    X2       -0.03103   0.02507   0.00000   0.02361   0.01926  -0.01177
    Y2       -2.30935  -0.03957   0.00000  -0.05506  -0.05506  -2.36441
    Z2       -0.00425  -0.00036   0.00000  -0.00211  -0.00125  -0.00550
    X3        2.60894  -0.02444   0.00000  -0.00458  -0.00892   2.60002
    Y3       -2.30966  -0.02132   0.00000  -0.03774  -0.03774  -2.34740
    Z3       -0.01506   0.00055   0.00000  -0.00236  -0.00053  -0.01559
    X4        3.96681  -0.01208   0.00000   0.00539   0.00104   3.96785
    Y4       -0.00002   0.00000   0.00000   0.00001   0.00001  -0.00001
    Z4       -0.00737  -0.00415   0.00000  -0.00405  -0.00171  -0.00908
    X5        2.60895  -0.02445   0.00000  -0.00458  -0.00892   2.60003
    Y5        2.30959   0.02134   0.00000   0.03777   0.03777   2.34736
    Z5       -0.01500   0.00055   0.00000  -0.00236  -0.00053  -0.01553
    X6       -0.03106   0.02510   0.00000   0.02363   0.01928  -0.01178
    Y6        2.30942   0.03958   0.00000   0.05504   0.05505   2.36447
    Z6       -0.00409  -0.00036   0.00000  -0.00212  -0.00126  -0.00535
    X7       -1.05872  -0.00394   0.00000  -0.00749  -0.01184  -1.07056
    Y7       -4.10428  -0.00607   0.00000  -0.03288  -0.03288  -4.13716
    Z7       -0.00190  -0.00016   0.00000  -0.00108  -0.00062  -0.00252
    X8        3.61174   0.00536   0.00000   0.01922   0.01488   3.62662
    Y8       -4.11972  -0.00540   0.00000  -0.02401  -0.02401  -4.14373
    Z8       -0.01356  -0.00008   0.00000  -0.00140   0.00082  -0.01274
    X9        3.61161   0.00537   0.00000   0.01926   0.01491   3.62652
    Y9        4.11975   0.00539   0.00000   0.02400   0.02400   4.14375
    Z9       -0.01363  -0.00008   0.00000  -0.00138   0.00084  -0.01279
   X10       -1.05864  -0.00394   0.00000  -0.00749  -0.01184  -1.07048
   Y10        4.10442   0.00607   0.00000   0.03286   0.03286   4.13728
   Z10       -0.00149  -0.00017   0.00000  -0.00109  -0.00063  -0.00211
   X11        6.57190   0.05210   0.00000   0.06133   0.05693   6.62883
   Y11       -0.00006  -0.00000   0.00000  -0.00001  -0.00000  -0.00006
   Z11        0.11707   0.00913   0.00000   0.01983   0.02317   0.14024
   X12        7.52833   0.00104   0.00000   0.02585   0.02161   7.54994
   Y12       -1.68824   0.00495   0.00000   0.00484   0.00484  -1.68340
   Z12       -0.30158  -0.00262   0.00000  -0.01359  -0.00991  -0.31149
   X13        7.52830   0.00104   0.00000   0.02585   0.02161   7.54991
   Y13        1.68842  -0.00495   0.00000  -0.00483  -0.00483   1.68359
   Z13       -0.30043  -0.00263   0.00000  -0.01362  -0.00994  -0.31037
   X14       -4.08715   0.28897   0.00000   0.11128   0.10692  -3.98023
   Y14       -0.00000  -0.00002   0.00000   0.00001   0.00001   0.00001
   Z14        0.00273  -0.00017   0.00000   0.00090   0.00028   0.00301
   X15       -5.26210  -0.14909   0.00000  -0.12529  -0.12965  -5.39175
   Y15        2.01271   0.18608   0.00000   0.11236   0.11236   2.12507
   Z15        0.00304   0.00009   0.00000   0.00180   0.00065   0.00369
   X16       -5.26212  -0.14906   0.00000  -0.12526  -0.12962  -5.39174
   Y16       -2.01278  -0.18605   0.00000  -0.11236  -0.11236  -2.12513
   Z16        0.00342   0.00012   0.00000   0.00180   0.00065   0.00408
         Item               Value     Threshold  Converged?
 Maximum Force            0.288969     0.000450     NO 
 RMS     Force            0.065877     0.000300     NO 
 Maximum Displacement     0.129647     0.001800     NO 
 RMS     Displacement     0.043229     0.001200     NO 
 Predicted change in Energy=-7.254666D-02
 GradGradGradGradGradGradGradGradGradGradGradGradGradGradGradGradGradGrad

 Unable to Open any file for archive entry.
 1\1\GINC-BHP0004\Force\RBLYP TD-FC\STO-3G\C6H6N2O2\BWEIGHT\26-Dec-2022
 \0\\# FORCE TD=(singlets,nstates=5) BLYP/STO-3G nosymm pop=full\\Title
 Me\\0,1\C,-0.7083521,0.0000366,-0.0005091\C,-0.0164201,-1.2220549,-0.0
 022464\C,1.3805914,-1.2222203,-0.0079706\C,2.0991463,-0.0000113,-0.003
 8997\C,1.3805983,1.2221847,-0.0079402\C,-0.0164354,1.2220947,-0.002166
 \H,-0.5602531,-2.1718931,-0.0010056\H,1.9112512,-2.1800614,-0.0071756\
 H,1.9111838,2.1800757,-0.0072141\H,-0.5602059,2.171966,-0.0007869\N,3.
 4776999,-0.0000296,0.0619527\H,3.9838212,-0.8933784,-0.1595883\H,3.983
 8034,0.8934745,-0.1589829\N,-2.1628271,-0.0000013,0.0014467\O,-2.78458
 48,1.0650789,0.0016078\O,-2.7845924,-1.0651167,0.0018103\\Version=ES64
 L-G16RevC.01\HF=-485.480008\RMSD=2.671e-09\RMSF=6.588e-02\Dipole=0.385
 2781,0.0000186,-0.2749492\PG=C01 [X(C6H6N2O2)]\\@
 The archive entry for this job was punched.


 MEN HAVE BECOME THE TOOLS OF THEIR TOOLS... THOREAU   
 Job cpu time:       0 days  0 hours  3 minutes  8.7 seconds.
 Elapsed time:       0 days  0 hours  3 minutes  9.0 seconds.
 File lengths (MBytes):  RWF=   1312 Int=      0 D2E=      0 Chk=     32 Scr=     32
 Normal termination of Gaussian 16 at Mon Dec 26 21:11:41 2022.
