60
MD Step 0 Units = [eV / Ang.]
C  0.78283618 -1.30938719 0.63526845
C  0.81043722 -1.41287028 0.27468472
C  1.20853951 0.71951082 0.86587021
C  1.11403285 0.46634965 1.12703915
C  1.28453269 -0.15252900 -1.02803941
C  1.35135021 0.20307482 -0.92906668
C  1.05354552 -1.05841695 0.70590126
C  1.24929264 -1.00744434 0.38911443
C  1.10072478 -1.22725014 0.12258631
C  -0.23163713 -0.20702728 1.62314227
C  1.43123765 0.54870136 0.61445852
C  1.27788030 0.14106455 1.03878237
C  0.46970101 1.47255377 -0.58338536
C  0.44087153 1.57538584 -0.22130802
C  1.41944254 -0.37701059 -0.75646413
C  1.56994704 -0.15814614 -0.48879525
C  1.52757802 0.20142948 -0.59464459
C  -0.09489814 -1.29716510 -1.01866793
C  -0.00076284 -1.04387871 -1.28068774
C  -0.97804862 -1.29803103 0.29599927
C  -0.80165441 -1.30053745 0.62836930
C  0.37288083 -0.99502335 -1.26581305
C  0.50706367 -1.21801099 -0.99358073
C  0.21849290 -1.40427634 -0.84157078
C  -0.03474736 0.73802423 -1.47878951
C  -0.30708372 0.48651271 -1.54834138
C  -0.14204607 0.15934638 -1.63778539
C  0.75544926 1.46941320 -0.04571876
C  1.47269324 0.19049636 0.72020450
C  -1.05331576 1.05845259 -0.70512205
C  0.00012211 1.04381769 1.28028902
C  0.09499841 1.29722062 1.01860628
C  -1.52756779 -0.20144853 0.59463911
C  -1.35133924 -0.20306053 0.92907038
C  -0.81054282 1.41277752 -0.27472301
C  -1.10072431 1.22718505 -0.12268752
C  -1.24922329 1.00745411 -0.38928753
C  0.97823135 1.29795844 -0.29591502
C  0.80170174 1.30054697 -0.62845339
C  -0.37272722 0.99503952 1.26583975
C  -0.21851135 1.40427177 0.84158213
C  0.03475503 -0.73803043 1.47886242
C  0.30689305 -0.48651098 1.54803197
C  -1.56978970 0.15811635 0.48895034
C  -1.41935443 0.37687586 0.75634981
C  -1.28452378 0.15253577 1.02808598
C  -1.11409826 -0.46640302 -1.12703624
C  -1.20821693 -0.71948281 -0.86601288
C  0.23163359 0.20706010 -1.62311186
C  0.29626571 0.56493750 -1.52277123
C  -1.43136340 -0.54866032 -0.61438787
C  -1.47271627 -0.19045798 -0.72019547
C  -1.27789883 -0.14100633 -1.03885253
C  -0.46963992 -1.47260292 0.58328026
C  -0.44055738 -1.57538890 0.22201298
C  -0.75618848 -1.46912990 0.04513427
C  0.14217034 -0.15934318 1.63798234
C  -0.50700146 1.21797952 0.99361462
C  -0.29628863 -0.56494411 1.52278580
C  -0.78283337 1.30938223 -0.63532292
60
MD Step 1 Units = [eV / Ang.]
C  0.79180935 -1.28262333 0.60821084
C  0.81650671 -1.37551117 0.28447215
C  1.20076086 0.68274073 0.85509516
C  1.11597094 0.45545416 1.08954835
C  1.28054603 -0.14190877 -0.99060799
C  1.34055569 0.17726360 -0.90173392
C  1.03477424 -1.05726287 0.67161638
C  1.21047157 -1.01150726 0.38720833
C  1.07719479 -1.20892199 0.14793251
C  -0.20884293 -0.22415840 1.59629262
C  1.40071385 0.52935009 0.62933726
C  1.26309861 0.16351957 1.01039585
C  0.48300002 1.44869656 -0.55537970
C  0.45708822 1.54093500 -0.23019884
C  1.40164019 -0.34355629 -0.74676019
C  1.53677332 -0.14707623 -0.50636214
C  1.49874402 0.17583721 -0.60133270
C  -0.06730926 -1.27065179 -1.01063162
C  0.01712538 -1.04323754 -1.24590900
C  -0.93944655 -1.29199558 0.29732610
C  -0.78105422 -1.29424888 0.59571968
C  0.35263743 -0.99936214 -1.23260896
C  0.47305746 -1.19955031 -0.98812003
C  0.21402048 -1.36675421 -0.85164743
C  -0.03042916 0.70104309 -1.46672499
C  -0.27497491 0.47516533 -1.52905602
C  -0.12670916 0.18141607 -1.60937876
C  0.73958852 1.44595342 -0.07267768
C  1.43786165 0.20775188 0.72421757
C  -1.03455440 1.05729614 -0.67086943
C  -0.01774151 1.04317807 1.24553043
C  0.06740514 1.27070464 1.01057115
C  -1.49873151 -0.17585649 0.60132926
C  -1.34054476 -0.17725015 0.90173700
C  -0.81660698 1.37542374 -0.28450874
C  -1.07719584 1.20885925 -0.14802971
C  -1.21040454 1.01151572 -0.38737072
C  0.93962090 1.29192625 -0.29724598
C  0.78110110 1.29425797 -0.59580066
C  -0.35249143 0.99937648 1.23263419
C  -0.21403867 1.36675065 0.85165763
C  0.03043422 -0.70104975 1.46679571
C  0.27479263 -0.47516264 1.52875595
C  -1.53662237 0.14704947 0.50650965
C  -1.40155444 0.34342661 0.74665039
C  -1.28053652 0.14191334 0.99065458
C  -1.11603320 -0.45550659 -1.08954709
C  -1.20044746 -0.68271475 -0.85523312
C  0.20883884 0.22418820 -1.59626364
C  0.26671906 0.54556303 -1.50607951
C  -1.40083379 -0.52931007 -0.62927038
C  -1.43788313 -0.20771505 -0.72421005
C  -1.26311782 -0.16346228 -1.01046224
C  -0.48293943 -1.44874361 0.55528108
C  -0.45678805 -1.54093711 0.23087819
C  -0.74029979 -1.44567625 0.07211536
C  0.12682749 -0.18141581 1.60956495
C  -0.47299888 1.19952195 0.98815206
C  -0.26674238 -0.54556943 1.50609397
C  -0.79180562 1.28261850 -0.60826308
60
MD Step 2 Units = [eV / Ang.]
C  0.81738840 -1.20413611 0.52926830
C  0.83362583 -1.26620011 0.31272583
C  1.17744773 0.57555783 0.82329933
C  1.12092379 0.42354470 0.98002085
C  1.26819649 -0.11097590 -0.88131661
C  1.30840005 0.10220014 -0.82182586
C  0.97964556 -1.05327013 0.57165990
C  1.09700684 -1.02269719 0.38143308
C  1.00822875 -1.15496778 0.22144781
C  -0.14252188 -0.27375526 1.51736317
C  1.31124262 0.47283762 0.67215720
C  1.21941635 0.22862285 0.92736128
C  0.52132380 1.37854892 -0.47372618
C  0.50388893 1.43996669 -0.25587054
C  1.34910354 -0.24621192 -0.71813627
C  1.43952643 -0.11484736 -0.55705758
C  1.41411036 0.10142832 -0.62038429
C  0.01284056 -1.19290332 -0.98668963
C  0.06905404 -1.04074353 -1.14417137
C  -0.82678104 -1.27369343 0.30099800
C  -0.72076559 -1.27520414 0.50055230
C  0.29364248 -1.01135622 -1.13545089
C  0.37402173 -1.14522612 -0.97166476
C  0.20091159 -1.25697035 -0.88038726
C  -0.01786683 0.59323831 -1.43081265
C  -0.18158695 0.44193033 -1.47213348
C  -0.08209212 0.24538305 -1.52592074
C  0.69309428 1.37696461 -0.15091994
C  1.33584652 0.25773268 0.73542757
C  -0.97945599 1.05329584 -0.57099952
C  -0.06960578 1.04068766 1.14384872
C  -0.01275751 1.19294763 0.98663155
C  -1.41409302 -0.10144509 0.62038314
C  -1.30838900 -0.10218834 0.82182688
C  -0.83371430 1.26612644 -0.31275840
C  -1.00823352 1.15491239 -0.22153037
C  -1.09694280 1.02270347 -0.38157316
C  0.82692822 1.27362892 -0.30093205
C  0.72081354 1.27521135 -0.50062128
C  -0.29351539 1.01136887 1.13546936
C  -0.20092659 1.25696818 0.88039531
C  0.01786633 -0.59324348 1.43087892
C  0.18143303 -0.44193208 1.47185337
C  -1.43939889 0.11482292 0.55718279
C  -1.34901904 0.24610051 0.71804516
C  -1.26818596 0.11097674 0.88135663
C  -1.12098259 -0.42358826 -0.98001993
C  -1.17715557 -0.57553677 -0.82342123
C  0.14251953 0.27377860 -1.51734006
C  0.18076571 0.48898506 -1.45669486
C  -1.31134806 -0.47280063 -0.67210229
C  -1.33586212 -0.25770046 -0.73542164
C  -1.21943294 -0.22857469 -0.92741778
C  -0.52126617 -1.37858847 0.47364054
C  -0.50362603 -1.43997035 0.25648488
C  -0.69373008 -1.37669588 0.15041626
C  0.08218809 -0.24539181 1.52608186
C  -0.37397405 1.14520375 0.97169303
C  -0.18078952 -0.48899066 1.45671063
C  -0.81738177 1.20413147 -0.52931302
60
MD Step 3 Units = [eV / Ang.]
C  0.85610772 -1.07797164 0.40372430
C  0.85897088 -1.09130447 0.35666319
C  1.13834953 0.40538706 0.77152395
C  1.12651377 0.37238246 0.80534992
C  1.24620705 -0.06197324 -0.70721479
C  1.25509533 -0.01638053 -0.69417996
C  0.89076341 -1.04488689 0.41289231
C  0.91589491 -1.03831678 0.37156852
C  0.89746666 -1.06758876 0.33694737
C  -0.03764759 -0.35142872 1.38987940
C  1.16754787 0.38278100 0.73835132
C  1.14811120 0.33083950 0.79457589
C  0.58072768 1.26519188 -0.34401957
C  0.57669523 1.27788769 -0.29584543
C  1.26357844 -0.09221418 -0.67157318
C  1.28331258 -0.06379376 -0.63590034
C  1.27784010 -0.01611600 -0.64919731
C  0.13921132 -1.06792840 -0.94697813
C  0.15080970 -1.03474740 -0.98145895
C  -0.64746558 -1.24230645 0.30619056
C  -0.62426038 -1.24264226 0.34947991
C  0.20002608 -1.02826676 -0.97997948
C  0.21710349 -1.05728716 -0.94378894
C  0.17984052 -1.08134752 -0.92396575
C  0.00198038 0.42205304 -1.37134099
C  -0.03395439 0.38864202 -1.37944758
C  -0.01156843 0.34577308 -1.39128123
C  0.61839790 1.26543807 -0.27401099
C  1.17232273 0.33604078 0.75164824
C  -0.89062406 1.04489949 -0.41237052
C  -0.15125847 1.03469808 0.98122807
C  -0.13915145 1.06795758 0.94692222
C  -1.27781412 0.01610450 0.64920090
C  -1.25508430 0.01638812 0.69417976
C  -0.85904040 1.09125309 -0.35668939
C  -0.89747809 1.06754585 -0.33700583
C  -0.91583717 1.03832002 -0.37167532
C  0.64757107 1.24224962 -0.30614835
C  0.62430919 1.24264585 -0.34952655
C  -0.19992604 1.02827641 0.97998623
C  -0.17985010 1.08134747 0.92397094
C  -0.00198811 -0.42205569 1.37140023
C  0.03384667 -0.38865391 1.37919962
C  -1.28322413 0.06377366 0.63598806
C  -1.26349619 0.09213177 0.67151248
C  -1.24619512 0.06196845 0.70724418
C  -1.12656739 -0.37241142 -0.80534906
C  -1.13809098 -0.40537333 -0.77162101
C  0.03765015 0.35144167 -1.38986553
C  0.04485996 0.39879334 -1.37592852
C  -1.16762997 -0.38274926 -0.73831489
C  -1.17232952 -0.33601545 -0.75164575
C  -1.14812266 -0.33080768 -0.79461563
C  -0.58067535 -1.26521987 0.34395268
C  -0.57648917 -1.27789362 0.29635958
C  -0.61891641 -1.26518230 0.27359839
C  0.01162742 -0.34579418 1.39140315
C  -0.21707207 1.05727500 0.94381095
C  -0.04488530 -0.39879821 1.37594605
C  -0.85609599 1.07796931 -0.40375938
60
MD Step 4 Units = [eV / Ang.]
C  0.90247573 -0.91088239 0.24022858
C  0.88808573 -0.86134684 0.41182234
C  1.08324153 0.18435680 0.70159129
C  1.12905951 0.30489098 0.57686331
C  1.21270466 0.00144957 -0.47987031
C  1.18119041 -0.16916513 -0.52677169
C  0.77250611 -1.02975627 0.20652908
C  0.67864804 -1.05415415 0.35731638
C  0.75097668 -0.95053453 0.48443762
C  0.09769230 -0.45009802 1.21979396
C  0.97749808 0.26511588 0.82061670
C  1.05144728 0.46123311 0.62012431
C  0.65489563 1.11383619 -0.17540411
C  0.66815607 1.06368103 -0.34614477
C  1.14810746 0.10666748 -0.60877567
C  1.07664068 0.00227681 -0.73489498
C  1.09689750 -0.16756225 -0.68364878
C  0.30153048 -0.90241513 -0.89187016
C  0.25556743 -1.02273660 -0.76765860
C  -0.41364622 -1.19670812 0.31161519
C  -0.49728149 -1.19552541 0.15329785
C  0.07852791 -1.04580936 -0.77551767
C  0.01394021 -0.93956084 -0.90395182
C  0.15193563 -0.85049227 -0.97631599
C  0.02755573 0.19964776 -1.28900528
C  0.15648431 0.31834604 -1.25426517
C  0.07938408 0.47374389 -1.21197088
C  0.51955342 1.11644251 -0.43154484
C  0.95669212 0.43558820 0.76944525
C  -0.77243366 1.02975288 -0.20618929
C  -0.25588320 1.02269529 0.76754883
C  -0.30149934 0.90242570 0.89181767
C  -1.09686154 0.16755892 0.68365769
C  -1.18117885 0.16916768 0.52676889
C  -0.88813098 0.86132564 -0.41184109
C  -0.75099614 0.95050851 -0.48446497
C  -0.67859699 1.05415347 -0.35738067
C  0.41369700 1.19666074 -0.31160332
C  0.49732998 1.19552524 -0.15331616
C  -0.07846141 1.04581593 0.77550945
C  -0.15193740 0.85049443 0.97631719
C  -0.02757321 -0.19964689 1.28905601
C  -0.15653010 -0.31837076 1.25405996
C  -1.07660409 -0.00229242 0.73493465
C  -1.14803025 -0.10671046 0.60875308
C  -1.21269075 -0.00146113 0.47988543
C  -1.12910659 -0.30490180 -0.57686239
C  -1.08302656 -0.18435508 -0.70165537
C  -0.09768471 0.45009641 -1.21979265
C  -0.13050219 0.28089074 -1.26612893
C  -0.97755014 -0.26509081 -0.82060435
C  -0.95668796 -0.43557219 -0.76944568
C  -1.05145209 -0.46122078 -0.62014292
C  -0.65484974 -1.11384955 0.17536064
C  -0.66802101 -1.06369216 0.34652945
C  -0.51992033 -1.11620226 0.43125116
C  -0.07937214 -0.47378226 1.21204114
C  -0.01392952 0.93956053 0.90396643
C  0.13047560 -0.28089448 1.26614841
C  -0.90245871 0.91088200 -0.24024947
60
MD Step 5 Units = [eV / Ang.]
C  0.94921674 -0.71260474 0.05088508
C  0.91513130 -0.59128171 0.47216946
C  1.01223798 -0.07061188 0.61630453
C  1.12388944 0.22525249 0.31052257
C  1.16556455 0.07422189 -0.21553675
C  1.08790964 -0.34328430 -0.33088323
C  0.63125870 -1.00500912 -0.03176753
C  0.40152615 -1.06476979 0.33839998
C  0.57747966 -0.80938884 0.65022412
C  0.25230433 -0.56010383 1.01585765
C  0.75240232 0.12819217 0.90913295
C  0.93298153 0.60756483 0.41548256
C  0.73531287 0.93215826 0.01935032
C  0.76832182 0.81024599 -0.40138003
C  1.00736785 0.33412574 -0.53234858
C  0.83175220 0.07807938 -0.84322614
C  0.88138998 -0.34015463 -0.71828030
C  0.48564269 -0.70600810 -0.82223561
C  0.37395072 -1.00162195 -0.51680296
C  -0.14235755 -1.13580268 0.31560495
C  -0.34799841 -1.13288403 -0.07293474
C  -0.06145962 -1.05844333 -0.53532165
C  -0.21929487 -0.79772907 -0.85175794
C  0.11882272 -0.57947661 -1.02939172
C  0.05670888 -0.05700456 -1.18527717
C  0.37389902 0.23539455 -1.10161909
C  0.18318683 0.61720004 -0.99750949
C  0.40239612 0.93745738 -0.60923459
C  0.70239193 0.54669942 0.78435076
C  -0.63126522 1.00498884 0.03189498
C  -0.37411193 1.00159084 0.51683599
C  -0.48564276 0.70599677 0.82218933
C  -0.88134449 0.34015974 0.71829427
C  -1.08789801 0.34328130 0.33087779
C  -0.91515030 0.59129442 -0.47217833
C  -0.57750721 0.80938211 -0.65021761
C  -0.40148308 1.06476562 -0.33841900
C  0.14234654 1.13576595 -0.31562567
C  0.34804627 1.13287890 0.07294886
C  0.06148999 1.05844631 0.53529741
C  -0.11881582 0.57947971 1.02938922
C  -0.05673530 0.05701028 1.18531754
C  -0.37387357 -0.23543534 1.10146284
C  -0.83177637 -0.07808881 0.84321071
C  -1.00729763 -0.33412240 0.53236949
C  -1.16554913 -0.07424082 0.21553438
C  -1.12392858 -0.22524336 -0.31052064
C  -1.01207280 0.07060027 -0.61633089
C  -0.25229137 0.56008747 -1.01586943
C  -0.33079574 0.14358247 -1.13105505
C  -0.75242102 -0.12817587 -0.90914666
C  -0.70237483 -0.54669401 -0.78435532
C  -0.93297823 -0.60757567 -0.41547603
C  -0.73527597 -0.93215426 -0.01936734
C  -0.76826646 -0.81026457 0.40161663
C  -0.40258966 -0.93723383 0.60907486
C  -0.18322746 -0.61725897 0.99752178
C  0.21928097 0.79774331 0.85176397
C  0.33076822 -0.14358505 1.13107596
C  -0.94919459 0.71260569 -0.05089145
60
MD Step 6 Units = [eV / Ang.]
C  0.98761118 -0.49595027 -0.14885433
C  0.93319965 -0.30049592 0.53028557
C  0.92606958 -0.33800926 0.51958794
C  1.10570075 0.13892361 0.02683881
C  1.10275329 0.14992406 0.06495973
C  0.97744498 -0.52253969 -0.12106955
C  0.47551514 -0.96757320 -0.28207256
C  0.10546468 -1.06385312 0.31466499
C  0.38841742 -0.65172961 0.81723946
C  0.41207731 -0.66947234 0.78980046
C  0.50709433 -0.01727976 0.99191911
C  0.79778192 0.75459662 0.19549951
C  0.81156128 0.73047329 0.22399359
C  0.86496581 0.53447686 -0.45492537
C  0.84789494 0.56958681 -0.44591713
C  0.56471892 0.15692884 -0.94760567
C  0.64469702 -0.51784589 -0.74655978
C  0.67379860 -0.49139529 -0.73965684
C  0.49423507 -0.96804688 -0.24705931
C  0.14462762 -1.05884882 0.31621809
C  -0.18701874 -1.05413510 -0.31008269
C  -0.20801092 -1.05972475 -0.27658085
C  -0.46212781 -0.63948606 -0.78719494
C  0.08263883 -0.28782958 -1.07353970
C  0.08672758 -0.32632330 -1.06271421
C  0.59834864 0.14547070 -0.92855269
C  0.29029398 0.76109584 -0.76060024
C  0.27459191 0.73854267 -0.78923136
C  0.42693690 0.65736789 0.79113354
C  -0.47560727 0.96753711 0.28196814
C  -0.49422682 0.96802813 0.24724845
C  -0.67383038 0.49136170 0.73961976
C  -0.64464395 0.51785781 0.74657756
C  -0.97743258 0.52253160 0.12106136
C  -0.93319083 0.30054331 -0.53028500
C  -0.38845236 0.65174420 -0.81719773
C  -0.10543431 1.06384420 -0.31463463
C  -0.14470042 1.05882613 -0.31627064
C  0.18706266 1.05412571 0.31012868
C  0.20800206 1.05972334 0.27654130
C  -0.08262404 0.28783375 1.07353305
C  -0.08676343 0.32633331 1.06274229
C  -0.59824902 -0.14552624 0.92845277
C  -0.56480496 -0.15692884 0.94753443
C  -0.84783714 -0.56953493 0.44598027
C  -1.10273562 -0.14994974 -0.06498018
C  -1.10572987 -0.13889442 -0.02683620
C  -0.92595996 0.33798376 -0.51957410
C  -0.41206033 0.66943913 -0.78982657
C  -0.53771212 -0.00247570 -0.97614669
C  -0.50707748 0.01728592 -0.99195990
C  -0.42690865 -0.65737262 -0.79114122
C  -0.79777004 -0.75463081 -0.19546698
C  -0.81153328 -0.73045132 -0.22398086
C  -0.86499557 -0.53450341 0.45500011
C  -0.27459667 -0.73834086 0.78921823
C  -0.29038782 -0.76117766 0.76054657
C  0.46209101 0.63951435 0.78719189
C  0.53768514 0.00247389 0.97616847
C  -0.98758581 0.49595082 0.14886380
60
MD Step 7 Units = [eV / Ang.]
C  1.00797678 -0.27643914 -0.34077539
C  0.93471758 -0.01217122 0.57773573
C  0.82621548 -0.59256084 0.41644081
C  1.06894000 0.05246878 -0.24985540
C  1.02259263 0.22104549 0.33697584
C  0.85304283 -0.68807834 0.08533068
C  0.31566382 -0.91444620 -0.52094478
C  -0.18464157 -1.04462598 0.28613305
C  0.19762015 -0.48697892 0.96578459
C  0.56055319 -0.76444354 0.55606233
C  0.25949623 -0.15862126 1.05543119
C  0.65238933 0.88476144 -0.02208464
C  0.87182426 0.52149597 0.41940782
C  0.94416280 0.25675785 -0.49922640
C  0.67800238 0.78904118 -0.35407406
C  0.29497004 0.23100158 -1.03291032
C  0.40310927 -0.68195163 -0.76123579
C  0.84539888 -0.27394945 -0.64650267
C  0.60284752 -0.91867330 0.01986276
C  0.42159066 -0.96567221 0.31136404
C  -0.02704444 -0.95928949 -0.53566011
C  -0.34712475 -1.04271408 -0.01986427
C  -0.69060238 -0.47437883 -0.71076906
C  0.04597960 0.00110372 -1.09802600
C  0.11446122 -0.58294161 -0.92505557
C  0.80658800 0.05540440 -0.74403604
C  0.38958186 0.88809925 -0.51680418
C  0.14541298 0.53212076 -0.95090071
C  0.15137200 0.75379937 0.78411019
C  -0.31583980 0.91439654 0.52060988
C  -0.60266935 0.91866921 -0.01952179
C  -0.84545826 0.27389491 0.64647812
C  -0.40305368 0.68196834 0.76125463
C  -0.85302899 0.68806541 -0.08534088
C  -0.93468125 0.01225137 -0.57772640
C  -0.19766091 0.48701307 -0.96571116
C  0.18465548 1.04461259 -0.28605419
C  -0.42171991 0.96566491 -0.31144346
C  0.02708255 0.95927596 0.53573339
C  0.34707540 1.04270819 0.01981308
C  -0.04595825 -0.00109880 1.09801589
C  -0.11450381 0.58295386 0.92507041
C  -0.80641659 -0.05547336 0.74399391
C  -0.29511493 -0.23099098 1.03278663
C  -0.67796167 -0.78894025 0.35417512
C  -1.02257300 -0.22107716 -0.33701134
C  -1.06895661 -0.05242273 0.24985688
C  -0.82616335 0.59252257 -0.41638698
C  -0.56053552 0.76439534 -0.55610065
C  -0.72991120 -0.14464934 -0.80849768
C  -0.25944536 0.15861660 -1.05549699
C  -0.15133388 -0.75381393 -0.78412064
C  -0.65237027 -0.88481676 0.02214295
C  -0.87180601 -0.52145640 -0.41936408
C  -0.94427786 -0.25679181 0.49913646
C  -0.14522770 -0.53194641 0.95103141
C  -0.38972337 -0.88820096 0.51668733
C  0.69054594 0.47441923 0.71075736
C  0.72988557 0.14464836 0.80851867
C  -1.00794977 0.27643867 0.34080047
60
MD Step 8 Units = [eV / Ang.]
C  1.00034497 -0.07125346 -0.50514135
C  0.91198340 0.24828470 0.60564490
C  0.71482205 -0.80695313 0.31260909
C  1.00820283 -0.02688243 -0.49306128
C  0.92389659 0.27949847 0.57372570
C  0.71880437 -0.81968229 0.26937866
C  0.16328963 -0.84292091 -0.72303271
C  -0.44163535 -1.00032883 0.25301166
C  0.02036771 -0.32576893 1.07488973
C  0.68005766 -0.83043101 0.33081849
C  0.02940475 -0.28204555 1.08550473
C  0.50438722 0.97937203 -0.21784840
C  0.90371153 0.31949261 0.58491651
C  0.99126204 -0.00041785 -0.52632765
C  0.50722999 0.96668714 -0.26207611
C  0.04398250 0.29187401 -1.08322806
C  0.17473394 -0.81243814 -0.75485170
C  0.97841164 -0.07068700 -0.54577968
C  0.68530273 -0.85043015 0.26019270
C  0.66062236 -0.85669673 0.29895035
C  0.11799048 -0.84896886 -0.72537330
C  -0.46368391 -1.00047554 0.21228118
C  -0.87891488 -0.31316675 -0.62348743
C  0.01171791 0.26174906 -1.09179152
C  0.13652839 -0.79943915 -0.77698771
C  0.97366157 -0.02728473 -0.55837243
C  0.46911084 0.97978752 -0.28350171
C  0.02510818 0.33213898 -1.07224081
C  -0.10115351 0.82136443 0.75755656
C  -0.16353634 0.84286213 0.72249469
C  -0.68496934 0.85044295 -0.25972421
C  -0.97849159 0.07061484 0.54577217
C  -0.17468175 0.81245584 0.75486871
C  -0.71878983 0.81966370 -0.26938970
C  -0.91192301 -0.24817726 -0.60562813
C  -0.02040960 0.32582049 -1.07479135
C  0.44162749 1.00030998 -0.25288970
C  -0.66079665 0.85670659 -0.29904881
C  -0.11796141 0.84895242 0.72546706
C  0.46359599 1.00046498 -0.21233948
C  -0.01169115 -0.26174431 1.09177861
C  -0.13657523 0.79945184 0.77698844
C  -0.97343278 0.02720813 0.55838477
C  -0.04417296 -0.29185280 1.08306312
C  -0.50721040 -0.96654356 0.26220599
C  -0.92387484 -0.27953322 -0.57377459
C  -1.00820597 0.02694164 0.49306094
C  -0.71482594 0.80690523 -0.31251714
C  -0.68004393 0.83037035 -0.33086534
C  -0.88447760 -0.26919006 -0.63639430
C  -0.02932555 0.28202748 -1.08559027
C  0.10119730 -0.82138746 -0.75756841
C  -0.50436080 -0.97944455 0.21792955
C  -0.90370320 -0.31943704 -0.58484127
C  -0.99145819 0.00037920 0.52607939
C  -0.02474592 -0.33200218 1.07249955
C  -0.46928655 -0.97990187 0.28333204
C  0.87884319 0.31321629 0.62346838
C  0.88445798 0.26919184 0.63641200
C  -1.00031909 0.07125089 0.50517889
60
MD Step 9 Units = [eV / Ang.]
C  0.95538709 0.10256615 -0.62269035
C  0.85786398 0.45586318 0.60555494
C  0.59439623 -0.95458778 0.21394318
C  0.91867988 -0.09199277 -0.67681788
C  0.80598504 0.31742865 0.74901110
C  0.57917419 -0.89778172 0.41247635
C  0.02994337 -0.75077073 -0.86363559
C  -0.63888173 -0.92480771 0.21564031
C  -0.12820764 -0.17879673 1.12437936
C  0.75346647 -0.85344419 0.13025341
C  -0.16357464 -0.37405995 1.06870341
C  0.36154781 1.02046003 -0.37268981
C  0.89544703 0.13874941 0.70037115
C  0.99229655 -0.21479485 -0.52864078
C  0.34528814 1.07751482 -0.17526197
C  -0.16697191 0.33136712 -1.08339647
C  -0.02241991 -0.88991693 -0.72043253
C  1.05155933 0.10151678 -0.44075541
C  0.72763225 -0.76073224 0.45054410
C  0.83446038 -0.73279978 0.27706654
C  0.23436238 -0.72424467 -0.85556942
C  -0.54297721 -0.92667945 0.39765728
C  -1.00199977 -0.16666353 -0.52667987
C  -0.01729846 0.46893961 -1.04447666
C  0.14965683 -0.94911214 -0.62356273
C  1.07540097 -0.09517246 -0.38205338
C  0.51731794 1.01845584 -0.07804368
C  -0.07616520 0.15257700 -1.13205139
C  -0.30778725 0.84602639 0.70621419
C  -0.03023817 0.75070681 0.86294537
C  -0.72717398 0.76076374 -0.44999238
C  -1.05164969 -0.10160001 0.44076869
C  0.02245944 0.88993009 0.72044276
C  -0.57915789 0.89775916 -0.41248612
C  -0.85778508 -0.45573765 -0.60553235
C  0.12817117 0.17886173 -1.12426637
C  0.63884467 0.92478277 -0.21548363
C  -0.83466166 0.73282815 -0.27717350
C  -0.23434481 0.72422710 0.85567416
C  0.54285438 0.92666333 -0.39771523
C  0.01732904 -0.46893642 1.04446242
C  -0.14970440 0.94912328 0.62354925
C  -1.07513523 0.09509516 0.38211196
C  0.16675526 -0.33133759 1.08320650
C  -0.34529208 -1.07733906 0.17540922
C  -0.80596227 -0.31746372 -0.74906764
C  -0.91866773 0.09205900 0.67681332
C  -0.59445226 0.95453491 -0.21381735
C  -0.75346088 0.85337690 -0.13030302
C  -0.97921413 -0.36264198 -0.46837571
C  0.16367621 0.37402685 -1.06880315
C  0.30783033 -0.84605459 -0.70622516
C  -0.36151659 -1.02054256 0.37278706
C  -0.89544832 -0.13868150 -0.70026380
C  -0.99256571 0.21475617 0.52824902
C  0.07667956 -0.15249045 1.13240986
C  -0.51751059 -1.01856982 0.07783957
C  1.00192163 0.16671772 0.52665414
C  0.97920243 0.36264597 0.46838782
C  -0.95536482 -0.10257081 0.62273687
60
MD Step 10 Units = [eV / Ang.]
C  0.86555377 0.23048318 -0.67722351
C  0.76664335 0.58936827 0.57050381
C  0.46734951 -1.01313815 0.12555082
C  0.79667460 -0.13679457 -0.77922078
C  0.66864333 0.32825969 0.84075449
C  0.43821702 -0.90603997 0.49889573
C  -0.07447608 -0.63642858 -0.92201123
C  -0.75387289 -0.81321615 0.17440850
C  -0.23521551 -0.05529552 1.09749825
C  0.76646753 -0.82189752 -0.03172279
C  -0.30274285 -0.42329405 0.99401902
C  0.23068515 0.99311416 -0.47043129
C  0.83735977 -0.00844383 0.74884873
C  0.93576417 -0.36742656 -0.49991297
C  0.20064051 1.10061096 -0.09828191
C  -0.31976512 0.34263321 -1.02093194
C  -0.17294956 -0.89819910 -0.65233700
C  1.04711079 0.22826578 -0.33442463
C  0.71821570 -0.64771313 0.57111059
C  0.92015027 -0.59506450 0.24420442
C  0.31043194 -0.58636147 -0.90639780
C  -0.57266528 -0.81632963 0.51744709
C  -1.03886836 -0.04419900 -0.42172033
C  -0.03864003 0.60135849 -0.94769224
C  0.15111597 -1.00954650 -0.46938784
C  1.09161320 -0.14194658 -0.22422827
C  0.52454421 0.98941509 0.08468359
C  -0.14974838 0.00546502 -1.11270070
C  -0.44911579 0.81616000 0.62590296
C  0.07416573 0.63636666 0.92123656
C  -0.71767219 0.64776470 -0.57053598
C  -1.04720116 -0.22835312 0.33446323
C  0.17296825 0.89820355 0.65233549
C  -0.43819958 0.90601296 -0.49890248
C  -0.76655027 -0.58923771 -0.57047809
C  0.23519007 0.05536858 -1.09738240
C  0.75380106 0.81318389 -0.17422552
C  -0.92035845 0.59511352 -0.24430792
C  -0.31042862 0.58634457 0.90650188
C  0.57251012 0.81630827 -0.51749755
C  0.03866997 -0.60135703 0.94767876
C  -0.15116002 1.00955026 0.46935891
C  -1.09133889 0.14187968 0.22432507
C  0.31954957 -0.34259841 1.02073750
C  -0.20067156 -1.10041941 0.09843144
C  -0.66861957 -0.32829044 -0.84081297
C  -0.79664457 0.13686088 0.77921004
C  -0.46745568 1.01308793 -0.12539615
C  -0.76647694 0.82183014 0.03167738
C  -0.99557373 -0.41365321 -0.31195800
C  0.30285918 0.42324465 -0.99412544
C  0.44915184 -0.81619092 -0.62591059
C  -0.23065148 -0.99319780 0.47053703
C  -0.83737019 0.00851943 -0.74871116
C  -0.93609623 0.36739699 0.49939807
C  0.15038095 -0.00544822 1.11312652
C  -0.52472939 -0.98951074 -0.08490170
C  1.03879469 0.04425202 0.42168914
C  0.99557375 0.41365980 0.31196111
C  -0.86553762 -0.23049049 0.67727507
60
MD Step 11 Units = [eV / Ang.]
C  0.72632342 0.30293522 -0.65833028
C  0.63496177 0.63500500 0.49618005
C  0.33557730 -0.96830329 0.05091442
C  0.64019062 -0.15732233 -0.78610690
C  0.51212440 0.30779793 0.83471248
C  0.29890712 -0.83409187 0.51843318
C  -0.14340802 -0.49923286 -0.88485869
C  -0.77202971 -0.66280254 0.12967641
C  -0.29219603 0.03854119 0.98372165
C  0.70996851 -0.72855193 -0.14584830
C  -0.37713419 -0.42240508 0.85469390
C  0.11648570 0.88797274 -0.50055350
C  0.72349437 -0.11388847 0.71949504
C  0.81455270 -0.44589634 -0.43626200
C  0.07905753 1.02267889 -0.03429295
C  -0.40249619 0.32130458 -0.88811314
C  -0.26667556 -0.82701397 -0.54718492
C  0.95385782 0.30008950 -0.22898623
C  0.64971622 -0.51051422 0.60901207
C  0.90291156 -0.44457089 0.19950156
C  0.33861921 -0.43650048 -0.86514659
C  -0.54484779 -0.66657729 0.55940033
C  -0.97613055 0.04797494 -0.30977757
C  -0.05070836 0.64513485 -0.79640520
C  0.13917261 -0.96637585 -0.31781476
C  1.00947553 -0.16348664 -0.09114126
C  0.48465060 0.88345015 0.19479986
C  -0.18995864 -0.10115371 -1.00309063
C  -0.51244928 0.72448729 0.51420731
C  0.14311872 0.49917765 0.88408642
C  -0.64914327 0.51058648 -0.60848334
C  -0.95393643 -0.30017422 0.22905029
C  0.26666726 0.82700674 0.54716894
C  -0.29888902 0.83406148 -0.51843557
C  -0.63486503 -0.63488254 -0.49615566
C  0.29218772 -0.03846527 -0.98361411
C  0.77192135 0.66276361 -0.12948286
C  -0.90310508 0.44463649 -0.19959062
C  -0.33863229 0.43648683 0.86524102
C  0.54467052 0.66655052 -0.55943751
C  0.05073626 -0.64513747 0.79639387
C  -0.13920751 0.96637246 0.31777369
C  -1.00922121 0.16343648 0.09125636
C  0.40230666 -0.32126978 0.88793655
C  -0.07911316 -1.02248644 0.03443146
C  -0.51210187 -0.30782078 -0.83476945
C  -0.64014515 0.15738321 0.78608973
C  -0.33571926 0.96826289 -0.05073792
C  -0.70999479 0.72849157 0.14581324
C  -0.92176952 -0.41489656 -0.17234415
C  0.37725355 0.42234015 -0.85479852
C  0.51247269 -0.72451853 -0.51420922
C  -0.11645072 -0.88805195 0.50065966
C  -0.72351315 0.11396787 -0.71933468
C  -0.81493040 0.44587844 0.43566052
C  0.19066034 0.10109359 1.00353221
C  -0.48480612 -0.88350910 -0.19499831
C  0.97606932 -0.04792799 0.30974391
C  0.92178314 0.41490536 0.17233648
C  -0.72631623 -0.30294570 0.65838222
60
MD Step 12 Units = [eV / Ang.]
C  0.53736479 0.31728602 -0.56366427
C  0.46271827 0.58928154 0.38196465
C  0.20020694 -0.81695064 -0.00874163
C  0.44958691 -0.15253536 -0.69411616
C  0.33731105 0.25517455 0.72756680
C  0.16267384 -0.67988242 0.46857550
C  -0.17494169 -0.33974467 -0.74924272
C  -0.68982402 -0.47371130 0.08176329
C  -0.29685370 0.10076497 0.78117576
C  0.58212957 -0.57218692 -0.20934300
C  -0.38377302 -0.36968216 0.64987075
C  0.02065135 0.70339052 -0.46041373
C  0.55304380 -0.17509823 0.60990580
C  0.62762307 -0.44686959 -0.33710909
C  -0.01746487 0.84099444 0.01562399
C  -0.41192840 0.26646693 -0.68382209
C  -0.30070785 -0.67431477 -0.40472772
C  0.76965454 0.31437471 -0.12550825
C  0.52076921 -0.34965294 0.56101063
C  0.77935311 -0.28236270 0.14299158
C  0.31698849 -0.27572566 -0.72904385
C  -0.45781616 -0.47753793 0.52040940
C  -0.81096886 0.10789291 -0.19171056
C  -0.05306221 0.59678991 -0.59023037
C  0.11348677 -0.81645750 -0.17043376
C  0.82640097 -0.15870532 0.01504889
C  0.39640550 0.69894257 0.24939071
C  -0.19524110 -0.16482541 -0.80117754
C  -0.49446914 0.56978278 0.37113768
C  0.17470779 0.33970239 0.74855805
C  -0.52022089 0.34974510 -0.56059691
C  -0.76971428 -0.31445104 0.12559923
C  0.30066775 0.67429500 0.40469360
C  -0.16265566 0.67984978 -0.46857185
C  -0.46262548 -0.58918192 -0.38194527
C  0.29686707 -0.10069112 -0.78108791
C  0.68968191 0.47366664 -0.08157332
C  -0.77951185 0.28244412 -0.14305505
C  -0.31702131 0.27571663 0.72911882
C  0.45762809 0.47750800 -0.52042936
C  0.05308640 -0.59679665 0.59022328
C  -0.11350652 0.81644354 0.17038089
C  -0.82619736 0.15868181 -0.01492657
C  0.41179162 -0.26643717 0.68368448
C  0.01738522 -0.84082151 -0.01551085
C  -0.33729124 -0.25518453 -0.72761615
C  -0.44952462 0.15258333 0.69409103
C  -0.20037659 0.81692696 0.00893092
C  -0.58217349 0.57213993 0.20932355
C  -0.75542217 -0.36463443 -0.05148791
C  0.38388541 0.36960280 -0.64996483
C  0.49447379 -0.56981118 -0.37113138
C  -0.02061789 -0.70345625 0.46051041
C  -0.55307038 0.17517550 -0.60972919
C  -0.62802615 0.44687096 0.33645653
C  0.19596152 0.16467654 0.80159481
C  -0.39650972 -0.69894855 -0.24954774
C  0.81092973 -0.10785903 0.19167715
C  0.75545062 0.36464553 0.05146769
C  -0.53736847 -0.31729951 0.56371319
60
MD Step 13 Units = [eV / Ang.]
C  0.30339432 0.27874928 -0.40016509
C  0.25377681 0.46047694 0.23158975
C  0.06172788 -0.56885152 -0.05468339
C  0.22817548 -0.12472636 -0.51226053
C  0.14606669 0.17335814 0.52853882
C  0.02940455 -0.45101365 0.35561892
C  -0.17240381 -0.16017256 -0.52419712