60
MD Step 0 Units = [Angstroms]
C  -2.96219017 2.11017017 -0.06479000
C  -2.84897017 1.69937017 -1.49226000
C  -3.10217017 0.34396017 -1.86797000
C  -3.47934017 -0.65812983 -0.83219000
C  -3.58792017 -0.26404983 0.53723000
C  -3.32398017 1.14884017 0.92888000
C  -1.88684017 3.10235017 0.21536000
C  -1.10906017 3.30478017 -1.03897000
C  -1.70372017 2.43771017 -2.09435000
C  -0.85822017 1.79058017 -3.04767000
C  -2.22085017 -0.33054983 -2.86170000
C  -2.83112017 -1.95198983 -1.18582000
C  -2.31780017 -2.79908983 -0.15561000
C  -2.43096017 -2.38825983 1.27184000
C  -3.05283017 -1.14705983 1.61109000
C  -2.45819017 -0.27993983 2.66641000
C  -2.62576017 1.13898017 2.24477000
C  -1.59421017 2.09085017 2.51357000
C  -1.21706017 3.09292017 1.47779000
C  0.30683983 3.48954017 -0.97986000
C  1.00499983 3.47969017 0.33609000
C  0.25885983 3.28550017 1.53942000
C  0.79389983 2.40243017 2.61326000
C  -0.35136017 1.66409017 3.21534000
C  -0.19060017 0.30286017 3.61984000
C  -1.26589017 -0.68932983 3.33964000
C  -0.61770017 -1.98316983 2.98605000
C  -1.18815017 -2.81504983 1.97364000
C  -2.05328017 -1.74948983 -2.44008000
C  1.88683983 -3.10234983 -0.21537000
C  1.21706983 -3.09291983 -1.47779000
C  1.59420983 -2.09084983 -2.51357000
C  2.62575983 -1.13897983 -2.24477000
C  3.32397983 -1.14883983 -0.92888000
C  2.84896983 -1.69936983 1.49226000
C  1.70371983 -2.43770983 2.09435000
C  1.10905983 -3.30477983 1.03897000
C  -0.30684017 -3.48953983 0.97986000
C  -1.00500017 -3.47968983 -0.33609000
C  -0.25886017 -3.28549983 -1.53942000
C  0.35135983 -1.66408983 -3.21534000
C  0.19059983 -0.30285983 -3.61984000
C  1.26588983 0.68933017 -3.33963000
C  2.45818983 0.27994017 -2.66641000
C  3.05282983 1.14706017 -1.61109000
C  3.58791983 0.26405017 -0.53723000
C  3.47933983 0.65813017 0.83219000
C  3.10215983 -0.34395983 1.86797000
C  0.85821983 -1.79057983 3.04767000
C  1.12219983 -0.37773983 3.43932000
C  2.22084983 0.33055017 2.86170000
C  2.05327983 1.74949017 2.44008000
C  2.83111983 1.95199017 1.18582000
C  2.31779983 2.79909017 0.15561000
C  2.43095983 2.38826017 -1.27185000
C  1.18815983 2.81504017 -1.97363000
C  0.61769983 1.98317017 -2.98605000
C  -0.79390017 -2.40242983 -2.61326000
C  -1.12220017 0.37774017 -3.43932000
C  2.96218983 -2.11016983 0.06479000
60
MD Step 1 Units = [Angstroms]
C  -2.96187618 2.10964499 -0.06453521
C  -2.84864511 1.69880349 -1.49214983
C  -3.10168544 0.34424875 -1.86762271
C  -3.47889335 -0.65794279 -0.83173796
C  -3.58740496 -0.26411101 0.53681767
C  -3.32343816 1.14892162 0.92850737
C  -1.88641761 3.10192565 0.21564312
C  -1.10855910 3.30437610 -1.03881393
C  -1.70327869 2.43721794 -2.09430083
C  -0.85831307 1.79049713 -3.04701899
C  -2.22027612 -0.33032976 -2.86145355
C  -2.83060763 -1.95193325 -1.18540336
C  -2.31761178 -2.79849922 -0.15584399
C  -2.43078334 -2.38762797 1.27175124
C  -3.05226085 -1.14721105 1.61078660
C  -2.45756049 -0.28000326 2.66621395
C  -2.62514748 1.13906096 2.24453150
C  -1.59424823 2.09032990 2.51316143
C  -1.21706047 3.09250149 1.47727634
C  0.30644756 3.48901955 -0.97974128
C  1.00467830 3.47916854 0.33634203
C  0.25900939 3.28510108 1.53891230
C  0.79410321 2.40194164 2.61286149
C  -0.35127253 1.66352694 3.21500246
C  -0.19061410 0.30315618 3.61924688
C  -1.26601333 -0.68913470 3.33901899
C  -0.61775714 -1.98310592 2.98539311
C  -1.18784717 -2.81446048 1.97362166
C  -2.05268950 -1.74941343 -2.43979114
C  1.88641737 -3.10192531 -0.21565281
C  1.21706988 -3.09250118 -1.47727650
C  1.59424794 -2.09032954 -2.51316145
C  2.62514715 -1.13906063 -2.24453150
C  3.32343783 -1.14892128 -0.92850737
C  2.84864474 -1.69880319 1.49214981
C  1.70327835 -2.43721763 2.09430079
C  1.10855879 -3.30437576 1.03881386
C  -0.30644782 -3.48901925 0.97974131
C  -1.00467862 -3.47916821 -0.33634206
C  -0.25900966 -3.28510074 -1.53891229
C  0.35127219 -1.66352660 -3.21500246
C  0.19061377 -0.30315584 -3.61924685
C  1.26601292 0.68913504 -3.33900911
C  2.45756022 0.28000358 -2.66621389
C  3.05226056 1.14721132 -1.61078664
C  3.58740463 0.26411135 -0.53681765
C  3.47889299 0.65794310 0.83173797
C  3.10167524 -0.34424841 1.86762266
C  0.85831274 -1.79049679 3.04701900
C  1.12231866 -0.37751325 3.43870924
C  2.22027574 0.33033011 2.86145358
C  2.05268915 1.74941378 2.43979114
C  2.83060729 1.95193361 1.18540333
C  2.31761147 2.79849953 0.15584394
C  2.43078313 2.38762831 -1.27176095
C  1.18785654 2.81445092 -1.97361190
C  0.61775686 1.98310626 -2.98539303
C  -0.79410352 -2.40194132 -2.61286148
C  -1.12231900 0.37751358 -3.43870924
C  2.96187585 -2.10964466 0.06453518
60
MD Step 2 Units = [Angstroms]
C  -2.96093421 2.10810280 -0.06379823
C  -2.84767250 1.69714619 -1.49181400
C  -3.10024851 0.34507856 -1.86659736
C  -3.47756150 -0.65739461 -0.83042209
C  -3.58587425 -0.26428466 0.53561997
C  -3.32183310 1.14914349 0.92741978
C  -1.88517454 3.10066269 0.21645866
C  -1.10709830 3.30316983 -1.03835080
C  -1.70198308 2.43576709 -2.09413419
C  -0.85857146 1.79023622 -3.04510220
C  -2.21859143 -0.32969000 -2.86070792
C  -2.82909349 -1.95174686 -1.18418561
C  -2.31704027 -2.79675986 -0.15651824
C  -2.43024392 -2.38577429 1.27147986
C  -3.05058008 -1.14763451 1.60989103
C  -2.45571228 -0.28018326 2.66561623
C  -2.62334640 1.13928104 2.24381607
C  -1.59433950 2.08880210 2.51195143
C  -1.21704709 3.09125547 1.47577482
C  0.30531049 3.48747435 -0.97938676
C  1.00373749 3.47762056 0.33706629
C  0.25943848 3.28390943 1.53742729
C  0.79468153 2.40050193 2.61167939
C  -0.35101520 1.66188003 3.21398946
C  -0.19065215 0.30400792 3.61749066
C  -1.26635437 -0.68856281 3.33718548
C  -0.61791450 -1.98289801 2.98346008
C  -1.18695774 -2.81272455 1.97354553
C  -2.05095874 -1.74917216 -2.43892791
C  1.88517456 -3.10066230 -0.21646745
C  1.21705575 -3.09125523 -1.47577544
C  1.59433933 -2.08880168 -2.51195153
C  2.62334608 -1.13928074 -2.24381608
C  3.32183279 -1.14914313 -0.92741978
C  2.84767200 -1.69714600 1.49181394
C  1.70198275 -2.43576686 2.09413404
C  1.10709808 -3.30316948 1.03835054
C  -0.30531053 -3.48747413 0.97938689
C  -1.00373774 -3.47762021 -0.33706642
C  -0.25943857 -3.28390907 -1.53742725
C  0.35101484 -1.66187971 -3.21398945
C  0.19065182 -0.30400760 -3.61749054
C  1.26635374 0.68856315 -3.33717596
C  2.45571219 0.28018355 -2.66561599
C  3.05057989 1.14763463 -1.60989121
C  3.58587393 0.26428501 -0.53561990
C  3.47756106 0.65739486 0.83042210
C  3.10023868 -0.34507818 1.86659714
C  0.85857112 -1.79023584 3.04510225
C  1.12264883 -0.37685412 3.43690420
C  2.21859090 0.32969040 2.86070803
C  2.05095837 1.74917256 2.43892793
C  2.82909313 1.95174729 1.18418550
C  2.31704003 2.79676012 0.15651808
C  2.43024408 2.38577462 -1.27148876
C  1.18696625 2.81271533 -1.97353644
C  0.61791436 1.98289834 -2.98345978
C  -0.79468177 -2.40050165 -2.61167934
C  -1.12264920 0.37685444 -3.43690417
C  2.96093388 -2.10810248 0.06379815
60
MD Step 3 Units = [Angstroms]
C  -2.95934855 2.10561390 -0.06264572
C  -2.84604353 1.69449374 -1.49123166
C  -3.09788514 0.34635996 -1.86492443
C  -3.47534734 -0.65651350 -0.82833631
C  -3.58334554 -0.26454526 0.53373004
C  -3.31919866 1.14944482 0.92568641
C  -1.88316114 3.09857078 0.21772283
C  -1.10477557 3.30115849 -1.03758753
C  -1.69989483 2.43340790 -2.09379230
C  -0.85894116 1.78975920 -3.04199217
C  -2.21587587 -0.32867883 -2.85943269
C  -2.82662015 -1.95137967 -1.18223904
C  -2.31605794 -2.79393641 -0.15756429
C  -2.42930730 -2.38278857 1.27100676
C  -3.04783816 -1.14825049 1.60843062
C  -2.45273233 -0.28045324 2.66457940
C  -2.62043341 1.13957998 2.24261211
C  -1.59441962 2.08633642 2.50996515
C  -1.21697868 3.08919035 1.47337410
C  0.30352415 3.48492691 -0.97879528
C  1.00223016 3.47506915 0.33818328
C  0.26009792 3.28192161 1.53504987
C  0.79555294 2.39816156 2.60973274
C  -0.35059990 1.65924524 3.21228316
C  -0.19070409 0.30532518 3.61460875
C  -1.26683711 -0.68764352 3.33419404
C  -0.61813590 -1.98249612 2.98032714
C  -1.18552340 -2.80990577 1.97334958
C  -2.04817792 -1.74872739 -2.43748571
C  1.88316158 -3.09857033 -0.21773019
C  1.21698616 -3.08919023 -1.47337543
C  1.59441963 -2.08633590 -2.50996537
C  2.62043313 -1.13957971 -2.24261212
C  3.31919836 -1.14944444 -0.92568640
C  2.84604284 -1.69449371 1.49123153
C  1.69989449 -2.43340779 2.09379196
C  1.10477548 -3.30115812 1.03758696
C  -0.30352388 -3.48492683 0.97879556
C  -1.00223033 -3.47506878 -0.33818356
C  -0.26009774 -3.28192122 -1.53504979
C  0.35059951 -1.65924492 -3.21228313
C  0.19070377 -0.30532486 -3.61460850
C  1.26683614 0.68764386 -3.33418511
C  2.45273253 0.28045347 -2.66457888
C  3.04783813 1.14825037 -1.60843101
C  3.58334524 0.26454561 -0.53372988
C  3.47534678 0.65651365 0.82833631
C  3.09787592 -0.34635954 1.86492395
C  0.85894081 -1.78975877 3.04199227
C  1.12312015 -0.37581087 3.43395327
C  2.21587511 0.32867930 2.85943292
C  2.04817751 1.74872785 2.43748574
C  2.82661975 1.95138021 1.18223880
C  2.31605782 2.79393658 0.15756394
C  2.42930803 2.38278889 -1.27101435
C  1.18553055 2.80989709 -1.97334157
C  0.61813598 1.98249645 -2.98032648
C  -0.79555307 -2.39816133 -2.60973262
C  -1.12312057 0.37581118 -3.43395322
C  2.95934823 -2.10561358 0.06264554
60
MD Step 4 Units = [Angstroms]
C  -2.95709321 2.10228600 -0.06118089
C  -2.84374297 1.69099305 -1.49036965
C  -3.09463350 0.34795391 -1.86265009
C  -3.47225307 -0.65534273 -0.82562566
C  -3.57984389 -0.26485307 0.53129190
C  -3.31558509 1.14973047 0.92341387
C  -1.88045408 3.09566286 0.21930568
C  -1.10174178 3.29833568 -1.03653425
C  -1.69710821 2.43021689 -2.09318440
C  -0.85933772 1.78900578 -3.03779954
C  -2.21225177 -0.32737083 -2.85757909
C  -2.82325170 -1.95075157 -1.17967501
C  -2.31462053 -2.79012740 -0.15887592
C  -2.42791842 -2.37880856 1.27030159
C  -3.04411126 -1.14893477 1.60644674
C  -2.44875371 -0.28077180 2.66304393
C  -2.61652556 1.13986348 2.24090033
C  -1.59438793 2.08303956 2.50724010
C  -1.21679047 3.08631708 1.47021065
C  0.30123641 3.48140981 -0.97796450
C  1.00023754 3.47154784 0.33956960
C  0.26091133 3.27913015 1.53191072
C  0.79659014 2.39499742 2.60704952
C  -0.35004464 1.65577002 3.20985405
C  -0.19075400 0.30696796 3.61065707
C  -1.26734279 -0.68642194 3.33012730
C  -0.61836462 -1.98182170 2.97611067
C  -1.18360782 -2.80610119 1.97293661
C  -2.04448530 -1.74801822 -2.43545596
C  1.88045504 -3.09566234 -0.21931121
C  1.21679643 -3.08631712 -1.47021287
C  1.59438816 -2.08303892 -2.50724048
C  2.61652532 -1.13986326 -2.24090034
C  3.31558483 -1.14973006 -0.92341386
C  2.84374204 -1.69099323 1.49036943
C  1.69710786 -2.43021693 2.09318383
C  1.10174186 -3.29833530 1.03653329
C  -0.30123572 -3.48140990 0.97796496
C  -1.00023758 -3.47154745 -0.33957007
C  -0.26091080 -3.27912973 -1.53191058
C  0.35004420 -1.65576970 -3.20985399
C  0.19075368 -0.30696767 -3.61065663
C  1.26734140 0.68642227 -3.33011914
C  2.44875426 0.28077197 -2.66304306
C  3.04411147 1.14893434 -1.60644738
C  3.57984362 0.26485342 -0.53129163
C  3.47225235 0.65534277 0.82562567
C  3.09462509 -0.34795343 1.86264926
C  0.85933737 -1.78900528 3.03779970
C  1.12362321 -0.37445829 3.42992950
C  2.21225072 0.32737141 2.85757948
C  2.04448485 1.74801877 2.43545601
C  2.82325125 1.95075224 1.17967462
C  2.31462057 2.79012746 0.15887533
C  2.42791988 2.37880887 -1.27030748
C  1.18361321 2.80609326 -1.97292999
C  0.61836496 1.98182200 -2.97610956
C  -0.79659013 -2.39499725 -2.60704933
C  -1.12362370 0.37445858 -3.42992941
C  2.95709291 -2.10228570 0.06118058
60
MD Step 5 Units = [Angstroms]
C  -2.95413629 2.09825857 -0.05953636
C  -2.84075268 1.68683377 -1.48918613
C  -3.09054421 0.34968193 -1.85983458
C  -3.46828331 -0.65393829 -0.82247692
C  -3.57540334 -0.26515722 0.52849081
C  -3.31105868 1.14987884 0.92073963
C  -1.87715282 3.09195715 0.22104038
C  -1.09819133 3.29469492 -1.03520451
C  -1.69374522 2.42629360 -2.09219498
C  -0.85965311 1.78789943 -3.03266798
C  -2.20787740 -0.32586200 -2.85508595
C  -2.81907190 -1.94976063 -1.17663717
C  -2.31267239 -2.78546088 -0.16031678
C  -2.42600784 -2.37401244 1.26932603
C  -3.03949884 -1.14952836 1.60399338
C  -2.44394864 -0.28108595 2.66093470
C  -2.61177450 1.14001099 2.23865711
C  -1.59411594 2.07904968 2.50382577
C  -1.21639992 3.08265134 1.46646059
C  0.29863733 3.47696669 -0.97689189
C  0.99786446 3.46710149 0.34106691
C  0.26178076 3.27552714 1.52817848
C  0.79762999 2.39110954 2.60366704
C  -0.34937269 1.65164464 3.20666588
C  -0.19078152 0.30875662 3.60570928
C  -1.26771951 -0.68495636 3.32509311
C  -0.61852814 -1.98077483 2.97096171
C  -1.18129338 -2.80143698 1.97218272
C  -2.04005959 -1.74696733 -2.43282893
C  1.87715436 -3.09195656 -0.22104383
C  1.21640411 -3.08265156 -1.46646379
C  1.59411643 -2.07904891 -2.50382635
C  2.61177434 -1.14001081 -2.23865712
C  3.31105846 -1.14987840 -0.92073962
C  2.84075147 -1.68683417 1.48918581
C  1.69374484 -2.42629381 2.09219416
C  1.09819163 -3.29469452 1.03520310
C  -0.29863619 -3.47696700 0.97689255
C  -0.99786432 -3.46710109 -0.34106758
C  -0.26177982 -3.27552668 -1.52817830
C  0.34937221 -1.65164433 -3.20666579
C  0.19078119 -0.30875634 -3.60570863
C  1.26771765 0.68495666 -3.32508589
C  2.44394956 0.28108604 -2.66093346
C  3.03949935 1.14952759 -1.60399428
C  3.57540311 0.26515757 -0.52849042
C  3.46828239 0.65393819 0.82247694
C  3.09053677 -0.34968139 1.85983337
C  0.85965276 -1.78789886 3.03266821
C  1.12401806 -0.37289265 3.42492847
C  2.20787602 0.32586270 2.85508650
C  2.04005910 1.74696798 2.43282899
C  2.81907141 1.94976144 1.17663661
C  2.31267262 2.78546082 0.16031592
C  2.42601013 2.37401274 -1.26932993
C  1.18129672 2.80142998 -1.97217773
C  0.61852876 1.98077509 -2.97096010
C  -0.79762985 -2.39110943 -2.60366676
C  -1.12401863 0.37289293 -3.42492832
C  2.95413602 -2.09825828 0.05953591
60
MD Step 6 Units = [Angstroms]
C  -2.95044588 2.09369482 -0.05786430
C  -2.83705635 1.68223596 -1.48763547
C  -3.08568014 0.35133993 -1.85654994
C  -3.46344879 -0.65236536 -0.81910554
C  -3.57006853 -0.26539977 0.52554007
C  -3.30570062 1.14975228 0.91782274
C  -1.87337434 3.08747939 0.22273599
C  -1.09434885 3.29023395 -1.03361545
C  -1.68994839 2.42175598 -2.09069489
C  -0.85976480 1.78635520 -3.02676704
C  -2.20293774 -0.32426291 -2.85188760
C  -2.81418126 -1.94829305 -1.17329211
C  -2.31015333 -2.78008802 -0.16173078
C  -2.42349971 -2.36860824 1.26803813
C  -3.03411969 -1.14985080 1.60113496
C  -2.43851840 -0.28133535 2.65816977
C  -2.60635827 1.13988607 2.23585890
C  -1.59345884 2.07452844 2.49978284
C  -1.21571426 3.07821594 1.46232816
C  0.29594534 3.47165307 -0.97557612
C  0.99523269 3.46178700 0.34249418
C  0.26259428 3.27110866 1.52404895
C  0.79848672 2.38661634 2.59963216
C  -0.34861132 1.64708989 3.20268210
C  -0.19076360 0.31048564 3.59985555
C  -1.26779507 -0.68331468 3.31922037
C  -0.61854429 -1.97924409 2.96505813
C  -1.17867640 -2.79606219 1.97094899
C  -2.03510886 -1.74548881 -2.42959726
C  1.87337645 -3.08747875 -0.22273727
C  1.21571657 -3.07821637 -1.46233229
C  1.59345957 -2.07452755 -2.49978365
C  2.60635822 -1.13988594 -2.23585890
C  3.30570044 -1.14975181 -0.91782273
C  2.83705484 -1.68223656 1.48763503
C  1.68994796 -2.42175637 2.09069384
C  1.09434940 -3.29023354 1.03361360
C  -0.29594377 -3.47165362 0.97557694
C  -0.99523234 -3.46178658 -0.34249504
C  -0.26259291 -3.27110816 -1.52404875
C  0.34861080 -1.64708958 -3.20268200
C  0.19076324 -0.31048536 -3.59985464
C  1.26779278 0.68331493 -3.31921420
C  2.43851968 0.28133535 -2.65816817
C  3.03412054 1.14984970 -1.60113611
C  3.57006835 0.26540009 -0.52553956
C  3.46344764 0.65236514 0.81910556
C  3.08567380 -0.35133934 1.85654832
C  0.85976446 -1.78635458 3.02676733
C  1.12414599 -0.37122494 3.41906516
C  2.20293601 0.32426374 2.85188830
C  2.03510834 1.74548957 2.42959733
C  2.81418073 1.94829399 1.17329139
C  2.31015378 2.78008785 0.16172964
C  2.42350287 2.36860850 -1.26803985
C  1.17867757 2.79605629 -1.97094573
C  0.61854514 1.97924425 -2.96505602
C  -0.79848645 -2.38661628 -2.59963179
C  -1.12414667 0.37122519 -3.41906493
C  2.95044566 -2.09369454 0.05786370
60
MD Step 7 Units = [Angstroms]
C  -2.94599696 2.08877132 -0.05632394
C  -2.83264493 1.67743448 -1.48567417
C  -3.08011579 0.35271554 -1.85287672
C  -3.45777056 -0.65069395 -0.81573906
C  -3.56389627 -0.26552090 0.52266414
C  -3.29960517 1.14921015 0.91483210
C  -1.86924628 3.08226524 0.22419350
C  -1.09045228 3.28495970 -1.03178796
C  -1.68587155 2.41673423 -2.08855502
C  -0.85954711 1.78428932 -3.02028253
C  -2.19763237 -0.32269008 -2.84792347
C  -2.80869281 -1.94623538 -1.16981731
C  -2.30700696 -2.77417478 -0.16295519
C  -2.42032163 -2.36282014 1.26639762
C  -3.02810658 -1.14971666 1.59794337
C  -2.43268035 -0.28145770 2.65467100
C  -2.60047036 1.13934931 2.23248738
C  -1.59226973 2.06965075 2.49518181
C  -1.21463996 3.07304344 1.45803102
C  0.29338965 3.46553683 -0.97401853
C  0.99247237 3.45567365 0.34366311
C  0.26323563 3.26587987 1.51973117
C  0.79896837 2.38164843 2.59500123
C  -0.34779001 1.64234122 3.19787361
C  -0.19067668 0.31194102 3.59320032
C  -1.26739305 -0.68156985 3.31265324
C  -0.61832889 -1.97711856 2.95859429
C  -1.17586095 -2.79014059 1.96909572
C  -2.02985642 -1.74349779 -2.42576013
C  1.86924888 -3.08226459 -0.22419271
C  1.21464041 -3.07304409 -1.45803593
C  1.59227068 -2.06964977 -2.49518289
C  2.60047046 -1.13934921 -2.23248735
C  3.29960506 -1.14920965 -0.91483209
C  2.83264314 -1.67743525 1.48567363
C  1.68587104 -2.41673478 2.08855376
C  1.09045310 -3.28495928 1.03178568
C  -0.29338772 -3.46553764 0.97401948
C  -0.99247178 -3.45567322 -0.34366413
C  -0.26323385 -3.26587932 -1.51973097
C  0.34778947 -1.64234091 -3.19787349
C  0.19067626 -0.31194074 -3.59319914
C  1.26739041 0.68156999 -3.31264818
C  2.43268191 0.28145761 -2.65466911
C  3.02810782 1.14971527 -1.59794471
C  3.56389615 0.26552119 -0.52266352
C  3.45776916 0.65069364 0.81573909
C  3.08011063 -0.35271492 1.85287471
C  0.85954680 -1.78428869 3.02028285
C  1.12384426 -0.36957221 3.41246943
C  2.19763032 0.32269104 2.84792428
C  2.02985590 1.74349865 2.42576020
C  2.80869224 1.94623641 1.16981645
C  2.30700766 2.77417451 0.16295377
C  2.42032562 2.36282034 -1.26639713
C  1.17585995 2.79013595 -1.96909419
C  0.61832990 1.97711856 -2.95859172
C  -0.79896799 -2.38164839 -2.59500077
C  -1.12384507 0.36957245 -3.41246911
C  2.94599681 -2.08877105 0.05632321
60
MD Step 8 Units = [Angstroms]
C  -2.94077910 2.08366555 -0.05506707
C  -2.82752265 1.67266038 -1.48326760
C  -3.07393596 0.35360829 -1.84889999
C  -3.45128429 -0.64899364 -0.81259771
C  -3.55695672 -0.26546494 0.52007897
C  -3.29287698 1.14812385 0.91193256
C  -1.86489854 3.07636260 0.22522458
C  -1.08673296 3.27889368 -1.02974654
C  -1.68166871 2.41136317 -2.08566200
C  -0.85888438 1.78163019 -3.01340496
C  -2.19216118 -0.32125580 -2.84314883
C  -2.80272683 -1.94348848 -1.16638694
C  -2.30319010 -2.76789160 -0.16383589
C  -2.41641564 -2.35687212 1.26437192
C  -3.02159958 -1.14895473 1.59449425
C  -2.42665232 -0.28139500 2.65037608
C  -2.59430667 1.13827322 2.22853524
C  -1.59041605 2.06459241 2.49010109
C  -1.21309351 3.06717875 1.45378290
C  0.29118970 3.45869823 -0.97222483
C  0.98971181 3.44884301 0.34439613
C  0.26359539 3.25986047 1.51543091
C  0.79889591 2.37634083 2.58983962
C  -0.34693840 1.63763012 3.19222719
C  -0.19049922 0.31292059 3.58585927
C  -1.26635133 -0.67979435 3.30554386
C  -0.61780468 -1.97430168 2.95176851
C  -1.17295135 -2.78384066 1.96649895
C  -2.02452390 -1.74092141 -2.42132773
C  1.86490148 -3.07636196 -0.22522201
C  1.21309226 -3.06717963 -1.45378832
C  1.59041718 -2.06459138 -2.49010246
C  2.59430697 -1.13827314 -2.22853516
C  3.29287693 -1.14812333 -0.91193257
C  2.82752061 -1.67266126 1.48326696
C  1.68166809 -2.41136385 2.08566059
C  1.08673405 -3.27889326 1.02974390
C  -0.29118749 -3.45869930 0.97222584
C  -0.98971096 -3.44884258 -0.34439723
C  -0.26359323 -3.25985989 -1.51543076
C  0.34693786 -1.63762980 -3.19222706
C  0.19049869 -0.31292030 -3.58585781
C  1.26634848 0.67979433 -3.30553996
C  2.42665405 0.28139484 -2.65037399
C  3.02160125 1.14895313 -1.59449571
C  3.55695668 0.26546516 -0.52007829
C  3.45128263 0.64899327 0.81259775
C  3.07393201 -0.35360767 1.84889764
C  0.85888411 -1.78162956 3.01340528
C  1.12296316 -0.36804753 3.40528031
C  2.19215885 0.32125690 2.84314970
C  2.02452341 1.74092236 2.42132781
C  2.80272624 1.94348957 1.16638599
C  2.30319105 2.76789126 0.16383424
C  2.41642037 2.35687224 -1.26436931
C  1.17294836 2.78383740 -1.96649903
C  0.61780573 1.97430143 -2.95176557
C  -0.79889549 -2.37634079 -2.58983908
C  -1.12296412 0.36804774 -3.40527988
C  2.94077904 -2.08366528 0.05506622
60
MD Step 9 Units = [Angstroms]
C  -2.93480425 2.07854216 -0.05422230
C  -2.82171306 1.66812073 -1.48039695
C  -3.06723401 0.35385126 -1.84470470
C  -3.44404450 -0.64732779 -0.80987330
C  -3.54933430 -0.26518673 0.51797074
C  -3.28562769 1.14639281 0.90926989
C  -1.86045405 3.06983365 0.22567170
C  -1.08339403 3.27207719 -1.02751920
C  -1.67748187 2.40577375 -2.08193476
C  -0.85768490 1.77832981 -3.00631656
C  -2.18670853 -0.32005725 -2.83754595
C  -2.79640474 -1.93998236 -1.16315645
C  -2.29868250 -2.76140206 -0.16424381
C  -2.41174983 -2.35097005 1.26194242
C  -3.01473837 -1.14742845 1.59086278
C  -2.42063548 -0.28110024 2.64525106
C  -2.58805104 1.13655808 2.22401199
C  -1.58779707 2.05951654 2.48462450
C  -1.21101292 3.06068149 1.44977467
C  0.28953295 3.45122952 -0.97020670
C  0.98706644 3.44138835 0.34454559
C  0.26358295 3.25309013 1.51133276
C  0.79812376 2.37082443 2.58422085
C  -0.34608399 1.63316369 3.18575421
C  -0.19021434 0.31325570 3.57795548
C  -1.26454185 -0.67805420 3.29804415
C  -0.61691073 -1.97072577 2.94476920
C  -1.17004407 -2.77732442 1.96306780
C  -2.01931289 -1.73771038 -2.41632577
C  1.86045714 -3.06983308 -0.22566778
C  1.21101025 -3.06068257 -1.44978021
C  1.58779830 -2.05951553 -2.48462615
C  2.58805158 -1.13655801 -2.22401185
C  3.28562772 -1.14639229 -0.90926992
C  2.82171082 -1.66812162 1.48039622
C  1.67748111 -2.40577453 2.08193329
C  1.08339540 -3.27207679 1.02751630
C  -0.28953062 -3.45123085 0.97020770
C  -0.98706530 -3.44138795 -0.34454671
C  -0.26358049 -3.25308952 -1.51133271
C  0.34608346 -1.63316337 -3.18575408
C  0.19021368 -0.31325539 -3.57795373
C  1.26453897 0.67805396 -3.29804137
C  2.42063722 0.28110002 -2.64524891
C  3.01474046 1.14742676 -1.59086425
C  3.54933436 0.26518685 -0.51797002
C  3.44404258 0.64732741 0.80987334
C  3.06723126 -0.35385067 1.84470208
C  0.85768468 -1.77832925 3.00631684
C  1.12138413 -0.36674901 3.39763930
C  2.18670597 0.32005846 2.83754682
C  2.01931246 1.73771140 2.41632583
C  2.79640415 1.93998345 1.16315548
C  2.29868371 2.76140170 0.16424199
C  2.41175515 2.35097006 -1.26193790
C  1.17003938 2.77732264 -1.96306928
C  0.61691169 1.97072519 -2.94476604
C  -0.79812334 -2.37082434 -2.58422024
C  -1.12138524 0.36674920 -3.39763875
C  2.93480430 -2.07854191 0.05422137
60
MD Step 10 Units = [Angstroms]
C  -2.92811402 2.07353958 -0.05387996
C  -2.81526451 1.66397882 -1.47706587
C  -3.06010977 0.35333202 -1.84037102
C  -3.43612823 -0.64574793 -0.80770877
C  -3.54112808 -0.26465780 0.51647520
C  -3.27797241 1.14395988 0.90695608
C  -1.85601963 3.06275653 0.22542749
C  -1.08058947 3.26457610 -1.02513709
C  -1.67342911 2.40008458 -2.07734039
C  -0.85589443 1.77437484 -2.99917852
C  -2.18142778 -0.31916578 -2.83113460
C  -2.78984293 -1.93569018 -1.16024748
C  -2.29349606 -2.75485154 -0.16409076
C  -2.40632926 -2.34528412 1.25911039
C  -3.00765450 -1.14505556 1.58711943
C  -2.41479757 -0.28054379 2.63930222
C  -2.58186102 1.13414720 2.21894943
C  -1.58436048 2.05456029 2.47883864
C  -1.20836864 3.05362787 1.44615591
C  0.28855352 3.44323414 -0.96798329
C  0.98462793 3.43341373 0.34401244
C  0.26313811 3.24563335 1.50758263
C  0.79655938 2.36521738 2.57822546
C  -0.34524988 1.62910488 3.17849869
C  -0.18981242 0.31283227 3.56961534
C  -1.26188960 -0.67640314 3.29029737
C  -0.61561155 -1.96636594 2.93776116
C  -1.16721965 -2.77073640 1.95876114
C  -2.01438681 -1.73384999 -2.41079947
C  1.85602263 -3.06275607 -0.22542279
C  1.20836492 -3.05362914 -1.44616113
C  1.58436175 -2.05455935 -2.47884057
C  2.58186183 -1.13414712 -2.21894923
C  3.27797253 -1.14395938 -0.90695615
C  2.81526213 -1.66397963 1.47706507
C  1.67342818 -2.40008540 2.07733894
C  1.08059107 -3.26457574 1.02513407
C  -0.28855122 -3.44323570 0.96798419
C  -0.98462649 -3.43341335 -0.34401349
C  -0.26313546 -3.24563273 -1.50758272
C  0.34524939 -1.62910454 -3.17849858
C  0.18981160 -0.31283193 -3.56961332
C  1.26188690 0.67640262 -3.29029566
C  2.41479915 0.28054354 -2.63930015
C  3.00765702 1.14505392 -1.58712079
C  3.54112825 0.26465780 -0.51647450
C  3.43612606 0.64574760 0.80770882
C  3.06010816 -0.35333152 1.84036824
C  0.85589426 -1.77437440 2.99917873
C  1.11903718 -0.36574926 3.38968354
C  2.18142509 0.31916709 2.83113538
C  2.01438647 1.73385105 2.41079951
C  2.78984237 1.93569120 1.16024656
C  2.29349753 2.75485122 0.16408885
C  2.40633493 2.34528399 -1.25910429
C  1.16721368 2.77073615 -1.95876372
C  0.61561227 1.96636494 -2.93775794
C  -0.79655903 -2.36521721 -2.57822480
C  -1.11903847 0.36574943 -3.38968286
C  2.92811420 -2.07353935 0.05387898
60
MD Step 11 Units = [Angstroms]
C  -2.92078546 2.06875858 -0.05407949
C  -2.80825455 1.66033773 -1.47330585
C  -3.05266758 0.35201000 -1.83597033
C  -3.42763780 -0.64428901 -0.80618120
C  -3.53245185 -0.26387150 0.51566052
C  -3.27002642 1.14082399 0.90505714
C  -1.85167825 3.05522647 0.22445097
C  -1.07840653 3.25648452 -1.02263423
C  -1.66959448 2.39439466 -2.07190705
C  -0.85350725 1.76979550 -2.99212003
C  -2.17642828 -0.31861816 -2.82398050
C  -2.78314735 -1.93063985 -1.15773523
C  -2.28768230 -2.74835757 -0.16334258
C  -2.40020479 -2.33993402 1.25590183
C  -3.00046475 -1.14182433 1.58332629
C  -2.40925868 -0.27971874 2.63258567
C  -2.57585581 1.13103944 2.21340593
C  -1.58011624 2.04982350 2.47283050
C  -1.20517258 3.04611215 1.44301943
C  0.28831423 3.43482573 -0.96558234
C  0.98245517 3.42503286 0.34276159
C  0.26224066 3.23758326 1.50427306
C  0.79417967 2.35961780 2.57193986
C  -0.34445288 1.62555579 3.17054374
C  -0.18929324 0.31160817 3.56096487
C  -1.25838829 -0.67487766 3.28243096
C  -0.61390457 -1.96125142 2.93087386
C  -1.16453595 -2.76419413 1.95360122
C  -2.00985582 -1.72936906 -2.40481682
C  1.85168091 -3.05522618 -0.22444611
C  1.20516824 -3.04611356 -1.44302388
C  1.58011747 -2.04982271 -2.47283267
C  2.57585689 -1.13103935 -2.21340567
C  3.27002664 -1.14082354 -0.90505724
C  2.80825211 -1.66033835 1.47330501
C  1.66959336 -2.39439546 2.07190572
C  1.07840832 -3.25648423 1.02263123
C  -0.28831214 -3.43482748 0.96558306
C  -0.98245342 -3.42503252 -0.34276249
C  -0.26223793 -3.23758264 -1.50427333
C  0.34445245 -1.62555544 -3.17054365
C  0.18929221 -0.31160781 -3.56096261
C  1.25838600 0.67487682 -3.28243024
C  2.40925994 0.27971848 -2.63258384
C  3.00046767 1.14182288 -1.58332743
C  3.53245216 0.26387136 -0.51565987
C  3.42763540 0.64428878 0.80618124
C  3.05266702 -0.35200962 1.83596751
C  0.85350713 -1.76979522 2.99212014
C  1.11591533 -0.36508650 3.38153990
C  2.17642554 0.31861952 2.82398111
C  2.00985561 1.72937015 2.40481683
C  2.78314684 1.93064074 1.15773445
C  2.28768401 2.74835735 0.16334070
C  2.40021056 2.33993373 -1.25589457
C  1.16452923 2.76419542 -1.95360455
C  0.61390489 1.96124992 -2.93087075
C  -0.79417945 -2.35961749 -2.57193919
C  -1.11591679 0.36508666 -3.38153909
C  2.92078578 -2.06875837 0.05407851
60
MD Step 12 Units = [Angstroms]
C  -2.91293437 2.06425500 -0.05480153
C  -2.80079235 1.65722973 -1.46917941
C  -3.04501475 0.34992723 -1.83156251
C  -3.41870221 -0.64296640 -0.80529095
C  -3.52343382 -0.26284617 0.51551645
C  -3.26190280 1.13704796 0.90358528
C  -1.84748397 3.04735617 0.22277751
C  -1.07685470 3.24792676 -1.02004715
C  -1.66602154 2.38877860 -2.06573190
C  -0.85057306 1.76467098 -2.98523121
C  -2.17176691 -0.31841093 -2.81620035
C  -2.77640985 -1.92492103 -1.15564048
C  -2.28133676 -2.74200355 -0.16202736
C  -2.39347841 -2.33497945 1.25237035
C  -2.99326663 -1.13780356 1.57953465
C  -2.40408222 -0.27864420 2.62521316
C  -2.57010844 1.12729696 2.20746895
C  -1.57514495 2.04536153 2.46668568
C  -1.20148359 3.03824710 1.44039153
C  0.28879548 3.42612727 -0.96304080
C  0.98056843 3.41636813 0.34083158
C  0.26091632 3.22906367 1.50143390
C  0.79104103 2.35409889 2.56545538
C  -0.34370229 1.62254716 3.16201521
C  -0.18866721 0.30962413 3.55212708
C  -1.25411002 -0.67349390 3.27455171
C  -0.61182476 -1.95547249 2.92419388
C  -1.16202383 -2.75778203 1.94768200
C  -2.00576713 -1.72434545 -2.39847026
C  1.84748606 -3.04735608 -0.22277310
C  1.20147911 -3.03824860 -1.44039480
C  1.57514608 -2.04536095 -2.46668804
C  2.57010979 -1.12729686 -2.20746864
C  3.26190315 -1.13704758 -0.90358542
C  2.80078993 -1.65723007 1.46917854
C  1.66602023 -2.38877932 2.06573077
C  1.07685658 -3.24792656 1.02004431
C  -0.28879374 -3.42612914 0.96304127
C  -0.98056640 -3.41636786 -0.34083225
C  -0.26091366 -3.22906308 -1.50143437
C  0.34370195 -1.62254680 -3.16201516
C  0.18866595 -0.30962374 -3.55212461
C  1.25410832 0.67349269 -3.27455188
C  2.40408300 0.27864395 -2.62521171
C  2.99326990 1.13780247 -1.57953545
C  3.52343428 0.26284587 -0.51551591
C  3.41869963 0.64296630 0.80529098
C  3.04501512 -0.34992701 1.83155979
C  0.85057296 -1.76467092 2.98523118
C  1.11208345 -0.36475902 3.37332087
C  2.17176423 0.31841229 2.81620071
C  2.00576706 1.72434653 2.39847024
C  2.77640942 1.92492172 1.15563993
C  2.28133870 2.74200348 0.16202563
C  2.39348397 2.33497898 -1.25236242
C  1.16201691 2.75778481 -1.94768572
C  0.61182457 1.95547046 -2.92419105
C  -0.79104098 -2.35409843 -2.56545472
C  -1.11208506 0.36475918 -3.37331993
C  2.91293483 -2.06425482 0.05480059
60
MD Step 13 Units = [Angstroms]
C  -2.90471525 2.06003800 -0.05596656
C  -2.79301858 1.65461413 -1.46478035
C  -3.03726065 0.34721028 -1.82719506
C  -3.40947667 -0.64177516 -0.80495971
C  -3.51421578 -0.26162559 0.51595233
C  -3.25371134 1.13275964 0.90249738
C  -1.84346067 3.03927522 0.22052062