60
MD Step 0 Units = [Angstroms / fs]
C  0.00000000 0.00000000 0.00000000
C  0.00000000 0.00000000 0.00000000
C  0.00000000 0.00000000 0.00000000
C  0.00000000 0.00000000 0.00000000
C  0.00000000 0.00000000 0.00000000
C  0.00000000 0.00000000 0.00000000
C  0.00000000 0.00000000 0.00000000
C  0.00000000 0.00000000 0.00000000
C  0.00000000 0.00000000 0.00000000
C  0.00000000 0.00000000 0.00000000
C  0.00000000 0.00000000 0.00000000
C  0.00000000 0.00000000 0.00000000
C  0.00000000 0.00000000 0.00000000
C  0.00000000 0.00000000 0.00000000
C  0.00000000 0.00000000 0.00000000
C  0.00000000 0.00000000 0.00000000
C  0.00000000 0.00000000 0.00000000
C  0.00000000 0.00000000 0.00000000
C  0.00000000 0.00000000 0.00000000
C  0.00000000 0.00000000 0.00000000
C  0.00000000 0.00000000 0.00000000
C  0.00000000 0.00000000 0.00000000
C  0.00000000 0.00000000 0.00000000
C  0.00000000 0.00000000 0.00000000
C  0.00000000 0.00000000 0.00000000
C  0.00000000 0.00000000 0.00000000
C  0.00000000 0.00000000 0.00000000
C  0.00000000 0.00000000 0.00000000
C  0.00000000 0.00000000 0.00000000
C  0.00000000 0.00000000 0.00000000
C  0.00000000 0.00000000 0.00000000
C  0.00000000 0.00000000 0.00000000
C  0.00000000 0.00000000 0.00000000
C  0.00000000 0.00000000 0.00000000
C  0.00000000 0.00000000 0.00000000
C  0.00000000 0.00000000 0.00000000
C  0.00000000 0.00000000 0.00000000
C  0.00000000 0.00000000 0.00000000
C  0.00000000 0.00000000 0.00000000
C  0.00000000 0.00000000 0.00000000
C  0.00000000 0.00000000 0.00000000
C  0.00000000 0.00000000 0.00000000
C  0.00000000 0.00000000 0.00000000
C  0.00000000 0.00000000 0.00000000
C  0.00000000 0.00000000 0.00000000
C  0.00000000 0.00000000 0.00000000
C  0.00000000 0.00000000 0.00000000
C  0.00000000 0.00000000 0.00000000
C  0.00000000 0.00000000 0.00000000
C  0.00000000 0.00000000 0.00000000
C  0.00000000 0.00000000 0.00000000
C  0.00000000 0.00000000 0.00000000
C  0.00000000 0.00000000 0.00000000
C  0.00000000 0.00000000 0.00000000
C  0.00000000 0.00000000 0.00000000
C  0.00000000 0.00000000 0.00000000
C  0.00000000 0.00000000 0.00000000
C  0.00000000 0.00000000 0.00000000
C  0.00000000 0.00000000 0.00000000
C  0.00000000 0.00000000 0.00000000
60
MD Step 1 Units = [Angstroms / fs]
C  0.00102659 -0.00063821 0.00089421
C  0.00104748 -0.00071666 0.00062084
C  0.00136006 0.00095764 0.00108502
C  0.00128843 0.00076571 0.00128301
C  0.00142230 0.00027978 -0.00040910
C  0.00147297 0.00054934 -0.00033406
C  0.00123179 -0.00044793 0.00094776
C  0.00138017 -0.00040929 0.00070759
C  0.00126758 -0.00057596 0.00050554
C  0.00022145 0.00022510 0.00168372
C  0.00152890 0.00082813 0.00089440
C  0.00141266 0.00051914 0.00121613
C  0.00077809 0.00156459 -0.00005755
C  0.00075622 0.00164251 0.00021699
C  0.00152457 0.00010955 -0.00020320
C  0.00163868 0.00027547 -0.00000024
C  0.00160656 0.00054811 -0.00008046
C  0.00033264 -0.00062854 -0.00041340
C  0.00040398 -0.00043652 -0.00061206
C  -0.00036868 -0.00063745 0.00063448
C  -0.00023494 -0.00063935 0.00088646
C  0.00068727 -0.00039947 -0.00060081
C  0.00078897 -0.00056852 -0.00039439
C  0.00057022 -0.00070972 -0.00027915
C  0.00037137 0.00097235 -0.00077948
C  0.00016489 0.00078164 -0.00083216
C  0.00029005 0.00053360 -0.00089998
C  0.00099474 0.00156224 0.00035006
C  0.00156030 0.00055656 0.00097455
C  -0.00043679 0.00124277 -0.00015233
C  0.00039034 0.00123129 0.00140657
C  0.00046226 0.00142341 0.00120817
C  -0.00081173 0.00024669 0.00087528
C  -0.00067814 0.00024549 0.00112888
C  -0.00025274 0.00151140 0.00017395
C  -0.00047276 0.00137073 0.00028920
C  -0.00058530 0.00120411 0.00008709
C  0.00116365 0.00143221 0.00016041
C  0.00102980 0.00143418 -0.00009170
C  0.00010767 0.00119430 0.00139565
C  0.00022459 0.00150454 0.00107397
C  0.00042345 -0.00017753 0.00157436
C  0.00062978 0.00001318 0.00162674
C  -0.00084373 0.00051932 0.00079518
C  -0.00072968 0.00068516 0.00099793
C  -0.00062748 0.00051504 0.00120396
C  -0.00049366 0.00002907 -0.00048819
C  -0.00056498 -0.00016279 -0.00029031
C  0.00057337 0.00056975 -0.00088888
C  0.00062231 0.00084109 -0.00081277
C  -0.00073417 -0.00003327 -0.00009953
C  -0.00076549 0.00023829 -0.00017972
C  -0.00061785 0.00027572 -0.00042137
C  0.00001678 -0.00076980 0.00085229
C  0.00003884 -0.00084769 0.00057838
C  -0.00020050 -0.00076719 0.00044430
C  0.00050487 0.00026122 0.00169495
C  0.00000589 0.00136332 0.00118923
C  0.00017249 -0.00004628 0.00160760
C  -0.00023176 0.00143303 -0.00009943
60
MD Step 2 Units = [Angstroms / fs]
C  0.00260772 -0.00068102 0.00228771
C  0.00264480 -0.00082074 0.00180069
C  0.00324587 0.00239888 0.00269328
C  0.00311836 0.00205697 0.00304595
C  0.00337580 0.00112254 -0.00020793
C  0.00346610 0.00160261 -0.00007422
C  0.00297316 -0.00034196 0.00238309
C  0.00323743 -0.00027314 0.00195523
C  0.00303704 -0.00057018 0.00159529
C  0.00102535 0.00097025 0.00386087
C  0.00354669 0.00216810 0.00235361
C  0.00333972 0.00161788 0.00292695
C  0.00211944 0.00362820 0.00047768
C  0.00208043 0.00376689 0.00096697
C  0.00355795 0.00081909 0.00015893
C  0.00376125 0.00111466 0.00052065
C  0.00370404 0.00160052 0.00037783
C  0.00125436 -0.00066216 -0.00026243
C  0.00138131 -0.00032003 -0.00061640
C  -0.00012558 -0.00071189 0.00181463
C  0.00011272 -0.00071528 0.00226352
C  0.00188609 -0.00025401 -0.00059644
C  0.00206720 -0.00055516 -0.00022857
C  0.00167755 -0.00080667 -0.00002327
C  0.00129516 0.00242786 -0.00098542
C  0.00092723 0.00208800 -0.00107909
C  0.00115037 0.00164607 -0.00119994
C  0.00250548 0.00362414 0.00120383
C  0.00360250 0.00168429 0.00249630
C  -0.00029226 0.00302257 0.00029864
C  0.00129829 0.00300049 0.00329638
C  0.00142635 0.00334280 0.00294290
C  -0.00102346 0.00108001 0.00230272
C  -0.00078552 0.00107797 0.00275478
C  0.00003560 0.00350116 0.00087982
C  -0.00035648 0.00325064 0.00108512
C  -0.00055677 0.00295371 0.00072507
C  0.00280641 0.00339234 0.00086605
C  0.00256792 0.00339586 0.00041691
C  0.00079470 0.00293460 0.00327704
C  0.00100298 0.00348723 0.00270385
C  0.00138540 0.00025269 0.00366609
C  0.00175304 0.00059257 0.00375918
C  -0.00108046 0.00156586 0.00216014
C  -0.00087725 0.00186127 0.00252146
C  -0.00069523 0.00155802 0.00288856
C  -0.00043790 0.00062351 -0.00036539
C  -0.00056481 0.00028172 -0.00001293
C  0.00165520 0.00171036 -0.00118026
C  0.00174215 0.00219389 -0.00104450
C  -0.00086631 0.00051253 0.00032705
C  -0.00092198 0.00099632 0.00018427
C  -0.00065919 0.00106277 -0.00024650
C  0.00056122 -0.00094771 0.00220272
C  0.00060060 -0.00108633 0.00171466
C  0.00017397 -0.00094314 0.00147585
C  0.00153037 0.00103449 0.00388079
C  0.00061345 0.00323568 0.00290918
C  0.00093837 0.00048666 0.00372509
C  0.00007284 0.00336157 0.00039277
60
MD Step 3 Units = [Angstroms / fs]
C  0.00275862 -0.00208569 0.00214490
C  0.00280303 -0.00225441 0.00155648
C  0.00364848 0.00227433 0.00281196
C  0.00349469 0.00186124 0.00323793
C  0.00385681 0.00054689 -0.00133897
C  0.00396599 0.00112648 -0.00117736
C  0.00319979 -0.00167587 0.00226011
C  0.00351887 -0.00159276 0.00174319
C  0.00327725 -0.00195195 0.00130840
C  0.00044764 0.00021486 0.00449502
C  0.00401199 0.00199532 0.00240139
C  0.00376224 0.00133122 0.00309454
C  0.00204572 0.00415885 -0.00035062
C  0.00199845 0.00432603 0.00024102
C  0.00407676 0.00017977 -0.00089563
C  0.00432243 0.00053679 -0.00045821
C  0.00425335 0.00112420 -0.00063049
C  0.00080769 -0.00205847 -0.00153117
C  0.00096071 -0.00164505 -0.00195898
C  -0.00121157 -0.00220993 0.00154541
C  -0.00092356 -0.00221403 0.00208770
C  0.00157082 -0.00156523 -0.00193511
C  0.00178941 -0.00192904 -0.00149030
C  0.00131885 -0.00223278 -0.00124227
C  0.00078092 0.00231681 -0.00259568
C  0.00033619 0.00190588 -0.00270835
C  0.00060622 0.00137186 -0.00285444
C  0.00251234 0.00415429 0.00052662
C  0.00407910 0.00141081 0.00257352
C  -0.00153529 0.00333997 -0.00059444
C  0.00070197 0.00330895 0.00362221
C  0.00085655 0.00372261 0.00319506
C  -0.00258927 0.00053979 0.00229452
C  -0.00230193 0.00053758 0.00284140
C  -0.00113922 0.00391826 0.00010747
C  -0.00161323 0.00361585 0.00035543
C  -0.00185468 0.00325681 -0.00007951
C  0.00287597 0.00387381 0.00011879
C  0.00258771 0.00387808 -0.00042384
C  0.00009353 0.00322930 0.00359919
C  0.00034515 0.00389681 0.00290632
C  0.00088311 -0.00065278 0.00425988
C  0.00132746 -0.00024185 0.00437170
C  -0.00265808 0.00112718 0.00212256
C  -0.00241252 0.00148398 0.00255944
C  -0.00219276 0.00111715 0.00300310
C  -0.00183080 -0.00019732 -0.00157389
C  -0.00198373 -0.00061024 -0.00114823
C  0.00121639 0.00144924 -0.00283093
C  0.00132080 0.00203378 -0.00266647
C  -0.00234822 -0.00033120 -0.00073722
C  -0.00241511 0.00025331 -0.00090947
C  -0.00209825 0.00033294 -0.00143065
C  -0.00038155 -0.00249491 0.00201444
C  -0.00033377 -0.00266200 0.00142452
C  -0.00084987 -0.00248961 0.00113617
C  0.00105805 0.00029216 0.00451888
C  -0.00012525 0.00359301 0.00315441
C  0.00034318 -0.00036976 0.00433054
C  -0.00109458 0.00374971 -0.00048097
60
MD Step 4 Units = [Angstroms / fs]
C  0.00332697 -0.00297796 0.00227219
C  0.00336641 -0.00313085 0.00173830
C  0.00439496 0.00237890 0.00326567
C  0.00425600 0.00200413 0.00365186
C  0.00469658 0.00040510 -0.00191642
C  0.00479584 0.00093003 -0.00176965
C  0.00372648 -0.00260574 0.00237667
C  0.00401551 -0.00253042 0.00190767
C  0.00379739 -0.00285700 0.00151336
C  0.00035487 -0.00022075 0.00539001
C  0.00472495 0.00212539 0.00289273
C  0.00449900 0.00152428 0.00352262
C  0.00241053 0.00496424 -0.00066884
C  0.00236733 0.00511510 -0.00013097
C  0.00489588 0.00007091 -0.00151394
C  0.00511889 0.00039468 -0.00111621
C  0.00505627 0.00092852 -0.00127193
C  0.00086436 -0.00294355 -0.00236785
C  0.00100241 -0.00256830 -0.00275635
C  -0.00173964 -0.00328132 0.00166703
C  -0.00147811 -0.00328504 0.00215897
C  0.00155651 -0.00249576 -0.00273522
C  0.00175434 -0.00282576 -0.00233087
C  0.00132784 -0.00310106 -0.00210584
C  0.00067329 0.00243382 -0.00375254
C  0.00026932 0.00206030 -0.00385365
C  0.00051530 0.00157557 -0.00398639
C  0.00283434 0.00496086 0.00012692
C  0.00478510 0.00159505 0.00304833
C  -0.00230161 0.00403013 -0.00095038
C  0.00042025 0.00399245 0.00417974
C  0.00056020 0.00436800 0.00379199
C  -0.00363189 0.00049576 0.00269625
C  -0.00337148 0.00049432 0.00319398
C  -0.00194236 0.00455495 -0.00031408
C  -0.00237309 0.00428116 -0.00008928
C  -0.00259099 0.00395476 -0.00048377
C  0.00316439 0.00470544 -0.00024253
C  0.00290258 0.00470938 -0.00073485
C  -0.00013180 0.00392012 0.00415959
C  0.00009643 0.00452538 0.00353018
C  0.00075102 -0.00100952 0.00517707
C  0.00115456 -0.00063600 0.00527711
C  -0.00369420 0.00102956 0.00254089
C  -0.00347129 0.00135308 0.00293800
C  -0.00327223 0.00101922 0.00334086
C  -0.00283186 -0.00057994 -0.00222754
C  -0.00296975 -0.00095452 -0.00184171
C  0.00106944 0.00164514 -0.00396563
C  0.00116277 0.00217626 -0.00381544
C  -0.00330094 -0.00070096 -0.00146825
C  -0.00336082 -0.00017063 -0.00162399
C  -0.00307473 -0.00009982 -0.00209846
C  -0.00098604 -0.00354004 0.00209290
C  -0.00094223 -0.00369079 0.00155715
C  -0.00141193 -0.00353570 0.00129589
C  0.00090929 -0.00015129 0.00541118
C  -0.00032988 0.00425002 0.00375528
C  0.00026147 -0.00075195 0.00523981
C  -0.00190263 0.00440227 -0.00084800
60
MD Step 5 Units = [Angstroms / fs]
C  0.00518648 -0.00245923 0.00351575
C  0.00520623 -0.00254259 0.00322315
C  0.00634365 0.00355068 0.00491215
C  0.00626875 0.00334539 0.00512315
C  0.00675602 0.00157705 -0.00103477
C  0.00681084 0.00186266 -0.00095404
C  0.00540372 -0.00225441 0.00357287
C  0.00556107 -0.00221334 0.00331590
C  0.00544395 -0.00239378 0.00310023
C  0.00163694 0.00052177 0.00738700
C  0.00652484 0.00341097 0.00470686
C  0.00640246 0.00308471 0.00505420
C  0.00409261 0.00688870 0.00041880
C  0.00406825 0.00696956 0.00071591
C  0.00686465 0.00139150 -0.00081370
C  0.00698710 0.00156859 -0.00059385
C  0.00695293 0.00186305 -0.00067789
C  0.00231731 -0.00241907 -0.00189012
C  0.00239122 -0.00221310 -0.00210375
C  -0.00080361 -0.00304380 0.00304974
C  -0.00065982 -0.00304586 0.00331912
C  0.00269604 -0.00217308 -0.00209333
C  0.00280337 -0.00235373 -0.00187008
C  0.00257063 -0.00250397 -0.00174679
C  0.00184659 0.00361674 -0.00356806
C  0.00162420 0.00341055 -0.00362102
C  0.00176115 0.00314447 -0.00369417
C  0.00432583 0.00688850 0.00085450
C  0.00655620 0.00312033 0.00479086
C  -0.00170025 0.00595736 0.00013216
C  0.00130984 0.00591580 0.00580569
C  0.00138584 0.00612209 0.00559280
C  -0.00324993 0.00183980 0.00438080
C  -0.00310790 0.00184027 0.00465694
C  -0.00150362 0.00624527 0.00047964
C  -0.00174109 0.00609651 0.00060242
C  -0.00185793 0.00591626 0.00038655
C  0.00450695 0.00674647 0.00065334
C  0.00436291 0.00674878 0.00038358
C  0.00100728 0.00587602 0.00579626
C  0.00113223 0.00620687 0.00544971
C  0.00185629 0.00008615 0.00727120
C  0.00207826 0.00029230 0.00732293
C  -0.00328383 0.00213423 0.00429712
C  -0.00316143 0.00231106 0.00451634
C  -0.00305308 0.00212584 0.00473779
C  -0.00256607 0.00035739 -0.00142024
C  -0.00263971 0.00015227 -0.00120965
C  0.00206597 0.00318119 -0.00368404
C  0.00211405 0.00347390 -0.00359963
C  -0.00282228 0.00029206 -0.00100380
C  -0.00285334 0.00058267 -0.00108795
C  -0.00269961 0.00061832 -0.00135146
C  -0.00038951 -0.00318592 0.00328382
C  -0.00036450 -0.00326668 0.00298908
C  -0.00062504 -0.00318458 0.00284672
C  0.00194201 0.00055836 0.00739757
C  0.00089967 0.00605657 0.00557307
C  0.00158876 0.00022898 0.00730260
C  -0.00148354 0.00616212 0.00018701
60
MD Step 6 Units = [Angstroms / fs]
C  0.00564358 -0.00320099 0.00317206
C  0.00562779 -0.00315703 0.00332175
C  0.00679243 0.00308251 0.00505110
C  0.00683458 0.00318781 0.00494115
C  0.00733359 0.00137710 -0.00136444
C  0.00730682 0.00122467 -0.00140484
C  0.00552723 -0.00330325 0.00314243
C  0.00544353 -0.00332490 0.00327407
C  0.00551082 -0.00323703 0.00338572
C  0.00161257 -0.00025136 0.00777470
C  0.00670079 0.00315162 0.00515335
C  0.00676780 0.00332821 0.00498215
C  0.00440221 0.00722304 0.00023545
C  0.00441259 0.00717616 0.00009055
C  0.00727621 0.00146472 -0.00147604
C  0.00721426 0.00137305 -0.00158281
C  0.00723218 0.00122818 -0.00153584
C  0.00248566 -0.00315667 -0.00277755
C  0.00244254 -0.00326110 -0.00267042
C  -0.00107394 -0.00417537 0.00300147
C  -0.00114611 -0.00417436 0.00286297
C  0.00229009 -0.00328077 -0.00267929
C  0.00223186 -0.00318773 -0.00278847
C  0.00235395 -0.00310893 -0.00285166
C  0.00161229 0.00315817 -0.00471691
C  0.00172303 0.00325915 -0.00468237
C  0.00165948 0.00339396 -0.00464616
C  0.00428578 0.00722820 0.00001128
C  0.00667986 0.00330034 0.00510652
C  -0.00240719 0.00642280 -0.00002078
C  0.00067510 0.00638040 0.00578908
C  0.00063409 0.00627629 0.00589682
C  -0.00411253 0.00189130 0.00465538
C  -0.00418725 0.00189488 0.00452436
C  -0.00250856 0.00627636 -0.00020234
C  -0.00239137 0.00635638 -0.00026642
C  -0.00232375 0.00644443 -0.00015499
C  0.00419386 0.00729463 0.00011820
C  0.00426585 0.00729389 0.00025638
C  0.00082985 0.00640033 0.00579882
C  0.00076553 0.00622844 0.00597120
C  0.00150718 -0.00003865 0.00783669
C  0.00139609 -0.00013972 0.00780079
C  -0.00409442 0.00174638 0.00470266
C  -0.00415632 0.00165448 0.00459534
C  -0.00421401 0.00174238 0.00448407
C  -0.00371531 -0.00006840 -0.00182163
C  -0.00367177 0.00003705 -0.00193198
C  0.00150697 0.00337091 -0.00465514
C  0.00147304 0.00322614 -0.00469194
C  -0.00358161 -0.00003196 -0.00203370
C  -0.00356036 -0.00018072 -0.00198700
C  -0.00364832 -0.00020858 -0.00186278
C  -0.00128246 -0.00410363 0.00288378
C  -0.00129222 -0.00405668 0.00303116
C  -0.00116845 -0.00410750 0.00310650
C  0.00146023 -0.00027457 0.00776616
C  0.00088777 0.00630721 0.00590808
C  0.00164636 -0.00010664 0.00781154
C  -0.00252401 0.00632049 -0.00005269
60
MD Step 7 Units = [Angstroms / fs]
C  0.00659239 -0.00329117 0.00314619
C  0.00652568 -0.00306375 0.00393347
C  0.00763518 0.00288103 0.00558083
C  0.00784587 0.00343409 0.00500834
C  0.00832135 0.00170902 -0.00099918
C  0.00817691 0.00092543 -0.00121425
C  0.00599541 -0.00383628 0.00299149
C  0.00556438 -0.00394830 0.00368337
C  0.00589711 -0.00347340 0.00426681
C  0.00218323 -0.00062857 0.00844745
C  0.00715016 0.00325133 0.00612660
C  0.00748995 0.00415231 0.00520752
C  0.00523569 0.00786248 0.00068502
C  0.00529627 0.00763175 -0.00009747
C  0.00802475 0.00219084 -0.00159045
C  0.00769693 0.00171178 -0.00216837
C  0.00778992 0.00093325 -0.00193277
C  0.00326816 -0.00324438 -0.00311636
C  0.00305661 -0.00379633 -0.00254670
C  -0.00064522 -0.00475870 0.00342356
C  -0.00102879 -0.00475326 0.00269708
C  0.00224477 -0.00390209 -0.00258319
C  0.00194807 -0.00341454 -0.00317189
C  0.00258151 -0.00300565 -0.00350391
C  0.00187453 0.00296463 -0.00528141
C  0.00246568 0.00350867 -0.00512112
C  0.00211274 0.00422148 -0.00492720
C  0.00461506 0.00787506 -0.00049037
C  0.00705412 0.00403342 0.00589138
C  -0.00251106 0.00732021 0.00049438
C  0.00042554 0.00728003 0.00602999
C  0.00021597 0.00672838 0.00660001
C  -0.00430581 0.00255066 0.00541674
C  -0.00469291 0.00255852 0.00469817
C  -0.00304201 0.00654755 -0.00044964
C  -0.00241327 0.00695718 -0.00078305
C  -0.00208017 0.00743223 -0.00019983
C  0.00412947 0.00824237 0.00006047
C  0.00451298 0.00823720 0.00078673
C  0.00123956 0.00738606 0.00606709
C  0.00090241 0.00648958 0.00698785
C  0.00160932 0.00051931 0.00876562
C  0.00101797 -0.00002487 0.00860391
C  -0.00421277 0.00177207 0.00565256
C  -0.00454041 0.00129285 0.00507423
C  -0.00483734 0.00177486 0.00448320
C  -0.00436219 0.00004977 -0.00152440
C  -0.00415005 0.00060292 -0.00209726
C  0.00130074 0.00411251 -0.00496350
C  0.00114912 0.00333678 -0.00517542
C  -0.00366654 0.00023274 -0.00264258
C  -0.00357017 -0.00054939 -0.00240745
C  -0.00400605 -0.00066830 -0.00172370
C  -0.00175151 -0.00437862 0.00279866
C  -0.00181154 -0.00414788 0.00358358
C  -0.00113322 -0.00438981 0.00397263
C  0.00137130 -0.00073775 0.00841154
C  0.00153594 0.00689846 0.00665591
C  0.00233468 0.00014713 0.00865945
C  -0.00310838 0.00677509 0.00033762
60
MD Step 8 Units = [Angstroms / fs]
C  0.00749913 -0.00325096 0.00293823
C  0.00736832 -0.00279191 0.00453069
C  0.00834719 0.00245380 0.00598390
C  0.00877058 0.00357231 0.00482738
C  0.00919021 0.00205023 -0.00047340
C  0.00889711 0.00046982 -0.00090909
C  0.00629536 -0.00435542 0.00262559
C  0.00542582 -0.00458154 0.00402498
C  0.00609349 -0.00361770 0.00520419
C  0.00281665 -0.00110718 0.00889180
C  0.00736535 0.00320456 0.00708989
C  0.00804947 0.00501999 0.00522610
C  0.00605971 0.00829293 0.00123540
C  0.00618374 0.00783025 -0.00035254
C  0.00859157 0.00303011 -0.00167051
C  0.00792796 0.00206189 -0.00284362
C  0.00811573 0.00048292 -0.00236995
C  0.00412645 -0.00320330 -0.00341509
C  0.00370239 -0.00432046 -0.00226123
C  -0.00005358 -0.00529680 0.00379559
C  -0.00083047 -0.00528576 0.00232661
C  0.00205771 -0.00453498 -0.00233247
C  0.00145999 -0.00354922 -0.00352696
C  0.00273906 -0.00272356 -0.00419844
C  0.00211472 0.00254361 -0.00576743
C  0.00331267 0.00364734 -0.00544861
C  0.00259404 0.00509014 -0.00505546
C  0.00480223 0.00831472 -0.00114122
C  0.00717463 0.00478649 0.00661692
C  -0.00252943 0.00812106 0.00114166
C  0.00006172 0.00808592 0.00602659
C  -0.00036063 0.00696900 0.00718049
C  -0.00434983 0.00328275 0.00613569
C  -0.00513136 0.00329586 0.00467475
C  -0.00360287 0.00655753 -0.00076511
C  -0.00232794 0.00738327 -0.00143861
C  -0.00165986 0.00834721 -0.00025960
C  0.00381945 0.00906222 -0.00002989
C  0.00459643 0.00905143 0.00143902
C  0.00170831 0.00830069 0.00609808
C  0.00102663 0.00648925 0.00796412
C  0.00165084 0.00122208 0.00953339
C  0.00045289 0.00011816 0.00921315
C  -0.00416219 0.00170372 0.00660943
C  -0.00482546 0.00073542 0.00543613
C  -0.00542444 0.00171537 0.00423913
C  -0.00500516 0.00019334 -0.00106169
C  -0.00458030 0.00131186 -0.00221853
C  0.00094907 0.00487282 -0.00512613
C  0.00064918 0.00330009 -0.00555946
C  -0.00359992 0.00056125 -0.00332419
C  -0.00340890 -0.00102073 -0.00285125
C  -0.00428380 -0.00125428 -0.00146047
C  -0.00229377 -0.00452729 0.00253008
C  -0.00241739 -0.00406467 0.00412025
C  -0.00103840 -0.00454760 0.00490539
C  0.00117162 -0.00132474 0.00882144
C  0.00230572 0.00731492 0.00729271
C  0.00311634 0.00046557 0.00932525
C  -0.00373335 0.00701663 0.00082735
60
MD Step 9 Units = [Angstroms / fs]
C  0.00752312 -0.00391452 0.00176443
C  0.00731901 -0.00319004 0.00427965
C  0.00810636 0.00103040 0.00544819
C  0.00877339 0.00279694 0.00362244
C  0.00911110 0.00157250 -0.00064189
C  0.00864761 -0.00092090 -0.00133041
C  0.00562407 -0.00566005 0.00127078
C  0.00425204 -0.00601693 0.00348099
C  0.00530340 -0.00449265 0.00534293
C  0.00266747 -0.00247251 0.00830785
C  0.00655508 0.00221727 0.00719632
C  0.00763372 0.00508042 0.00424967
C  0.00603205 0.00771239 0.00103897
C  0.00622883 0.00698407 -0.00147225
C  0.00816635 0.00312338 -0.00253336
C  0.00711789 0.00159459 -0.00438872
C  0.00741427 -0.00090186 -0.00364234
C  0.00420571 -0.00386741 -0.00448420
C  0.00353826 -0.00563234 -0.00266075
C  -0.00015637 -0.00659261 0.00329626
C  -0.00138408 -0.00657515 0.00097635
C  0.00093902 -0.00597153 -0.00277174
C  -0.00000358 -0.00441480 -0.00466062
C  0.00201530 -0.00311160 -0.00572112
C  0.00151231 0.00112472 -0.00698416
C  0.00340573 0.00286997 -0.00648386
C  0.00226786 0.00514940 -0.00586233
C  0.00404463 0.00774460 -0.00271429
C  0.00625599 0.00471583 0.00645099
C  -0.00328842 0.00799558 0.00106591
C  -0.00120388 0.00796776 0.00499646
C  -0.00187002 0.00620299 0.00681954
C  -0.00507840 0.00323748 0.00597802
C  -0.00631191 0.00325651 0.00366600
C  -0.00498356 0.00552569 -0.00194411
C  -0.00296794 0.00682820 -0.00300733
C  -0.00191617 0.00835252 -0.00114557
C  0.00249203 0.00892799 -0.00096070
C  0.00372000 0.00891075 0.00135929
C  0.00139685 0.00830717 0.00510724
C  0.00032035 0.00544722 0.00805673
C  0.00082315 0.00121092 0.00932005
C  -0.00107004 -0.00053460 0.00881838
C  -0.00478235 0.00074098 0.00672432
C  -0.00583030 -0.00078779 0.00486903
C  -0.00677538 0.00076301 0.00297752
C  -0.00643803 -0.00046131 -0.00128681
C  -0.00576956 0.00130516 -0.00311279
C  -0.00033180 0.00480804 -0.00597228
C  -0.00080135 0.00232178 -0.00665955
C  -0.00421964 0.00011845 -0.00486075
C  -0.00392029 -0.00238015 -0.00411539
C  -0.00529809 -0.00274484 -0.00191404
C  -0.00369617 -0.00537677 0.00129651
C  -0.00389274 -0.00464858 0.00380962
C  -0.00171051 -0.00540747 0.00504866
C  0.00006759 -0.00281416 0.00819810
C  0.00233916 0.00675048 0.00699629
C  0.00313680 0.00001382 0.00899529
C  -0.00518739 0.00625012 0.00057112
60
MD Step 10 Units = [Angstroms / fs]
C  0.00779639 -0.00414920 0.00083419
C  0.00751533 -0.00314561 0.00431978
C  0.00807182 -0.00016114 0.00514518
C  0.00899499 0.00228692 0.00261574
C  0.00923395 0.00142119 -0.00039916
C  0.00859125 -0.00203216 -0.00135356
C  0.00516626 -0.00656894 0.00015018
C  0.00326587 -0.00706331 0.00321308
C  0.00472059 -0.00494958 0.00579292
C  0.00285723 -0.00352068 0.00788688
C  0.00592168 0.00148443 0.00756867
C  0.00741515 0.00544916 0.00348315
C  0.00628139 0.00730863 0.00121281
C  0.00655471 0.00630110 -0.00226953
C  0.00792524 0.00357270 -0.00302090
C  0.00647206 0.00145444 -0.00559380
C  0.00688263 -0.00200699 -0.00456074
C  0.00461508 -0.00410376 -0.00515743
C  0.00369181 -0.00654993 -0.00262975
C  0.00014855 -0.00747072 0.00308218
C  -0.00155331 -0.00744650 -0.00013255
C  0.00008867 -0.00702024 -0.00278248
C  -0.00121651 -0.00486304 -0.00540172
C  0.00158026 -0.00305775 -0.00687129
C  0.00122363 -0.00006391 -0.00776543
C  0.00384847 0.00235606 -0.00707445
C  0.00226960 0.00551534 -0.00621270
C  0.00352631 0.00735168 -0.00398817
C  0.00550873 0.00494692 0.00653704
C  -0.00364338 0.00809189 0.00137339
C  -0.00216955 0.00807286 0.00415339
C  -0.00309199 0.00562674 0.00668026
C  -0.00535926 0.00353010 0.00608389
C  -0.00706806 0.00355523 0.00287662
C  -0.00599233 0.00466884 -0.00279674
C  -0.00319768 0.00647266 -0.00426976
C  -0.00174256 0.00858635 -0.00169004
C  0.00137443 0.00899361 -0.00155923
C  0.00307671 0.00896955 0.00165576
C  0.00143456 0.00854334 0.00430541
C  -0.00005712 0.00458086 0.00839436
C  0.00029927 0.00158703 0.00928878
C  -0.00232509 -0.00083327 0.00859651
C  -0.00494921 0.00006864 0.00711673
C  -0.00640173 -0.00204948 0.00454416
C  -0.00771073 0.00010177 0.00192222
C  -0.00747213 -0.00076375 -0.00109265
C  -0.00654763 0.00168413 -0.00362219
C  -0.00133408 0.00504363 -0.00636388
C  -0.00198183 0.00159656 -0.00731836
C  -0.00439867 0.00003873 -0.00604571
C  -0.00398552 -0.00342379 -0.00501397
C  -0.00589202 -0.00392617 -0.00195996
C  -0.00475804 -0.00578548 0.00031026
C  -0.00503139 -0.00477816 0.00379400
C  -0.00200423 -0.00582704 0.00551034
C  -0.00074682 -0.00399271 0.00773577
C  0.00273951 0.00638624 0.00692485
C  0.00350476 -0.00007348 0.00884158
C  -0.00627316 0.00567227 0.00068887
60
MD Step 11 Units = [Angstroms / fs]
C  0.00854939 -0.00372874 0.00047024
C  0.00819444 -0.00245668 0.00488924
C  0.00850753 -0.00077562 0.00535272
C  0.00967699 0.00232807 0.00214651
C  0.00981183 0.00184053 0.00044922
C  0.00899674 -0.00253608 -0.00076091
C  0.00521609 -0.00679703 -0.00039691
C  0.00280747 -0.00742365 0.00348623
C  0.00465013 -0.00474288 0.00675659
C  0.00360146 -0.00393755 0.00793224
C  0.00578121 0.00131128 0.00842601
C  0.00767373 0.00633547 0.00324482
C  0.00703346 0.00738044 0.00196625
C  0.00738040 0.00610445 -0.00245044
C  0.00815301 0.00456997 -0.00287506
C  0.00631050 0.00188466 -0.00613826
C  0.00683088 -0.00250514 -0.00482953
C  0.00555559 -0.00368566 -0.00516756
C  0.00438638 -0.00678718 -0.00196240
C  0.00105176 -0.00765363 0.00341211
C  -0.00110629 -0.00762289 -0.00066339
C  -0.00018253 -0.00738366 -0.00215524
C  -0.00183642 -0.00464879 -0.00547717
C  0.00170857 -0.00236064 -0.00734019
C  0.00150632 -0.00067692 -0.00784525
C  0.00483479 0.00239217 -0.00697098
C  0.00283160 0.00639786 -0.00587809
C  0.00353987 0.00743381 -0.00462738
C  0.00525884 0.00570100 0.00711907
C  -0.00335305 0.00866034 0.00226025
C  -0.00252327 0.00865056 0.00382687
C  -0.00369217 0.00554897 0.00703084
C  -0.00496712 0.00436864 0.00669308
C  -0.00713314 0.00439952 0.00262436
C  -0.00633097 0.00432041 -0.00302579
C  -0.00278683 0.00660642 -0.00489294
C  -0.00094384 0.00928706 -0.00162264
C  0.00081145 0.00951696 -0.00154883
C  0.00297007 0.00948633 0.00252707
C  0.00204603 0.00924713 0.00401853
C  0.00015499 0.00422415 0.00920365
C  0.00035696 0.00254044 0.00970897
C  -0.00297079 -0.00052903 0.00883353
C  -0.00444741 -0.00002116 0.00800144
C  -0.00628914 -0.00270620 0.00473884
C  -0.00794820 0.00002281 0.00141419
C  -0.00781371 -0.00046446 -0.00028303
C  -0.00664304 0.00263897 -0.00348920
C  -0.00173794 0.00580085 -0.00606887
C  -0.00255693 0.00142941 -0.00728054
C  -0.00391771 0.00055224 -0.00656274
C  -0.00339522 -0.00383750 -0.00525560
C  -0.00581017 -0.00447214 -0.00138115
C  -0.00516972 -0.00551682 -0.00010267
C  -0.00551697 -0.00424112 0.00431486
C  -0.00167686 -0.00556880 0.00649030
C  -0.00096856 -0.00453489 0.00774138
C  0.00369976 0.00651243 0.00734067
C  0.00442026 0.00043407 0.00914416
C  -0.00668576 0.00559220 0.00139327
60
MD Step 12 Units = [Angstroms / fs]
C  0.00890425 -0.00353811 -0.00010674
C  0.00848566 -0.00203438 0.00511776
C  0.00857194 -0.00156818 0.00524381
C  0.00995386 0.00210139 0.00145371
C  0.00999167 0.00196619 0.00098457
C  0.00902781 -0.00320697 -0.00044620
C  0.00496420 -0.00716610 -0.00113195
C  0.00211701 -0.00790682 0.00345903
C  0.00429438 -0.00473669 0.00732520
C  0.00400506 -0.00451268 0.00764510
C  0.00534827 0.00089966 0.00887802
C  0.00758521 0.00683795 0.00275114
C  0.00740490 0.00712392 0.00239711
C  0.00781539 0.00561639 -0.00282615
C  0.00803068 0.00519457 -0.00294610
C  0.00585218 0.00201989 -0.00680508
C  0.00646731 -0.00317122 -0.00525858
C  0.00611675 -0.00349766 -0.00535541
C  0.00473548 -0.00716478 -0.00156551
C  0.00163049 -0.00797146 0.00343782
C  -0.00092135 -0.00793508 -0.00138048
C  -0.00066697 -0.00787017 -0.00179292
C  -0.00262170 -0.00463670 -0.00572140
C  0.00156890 -0.00193202 -0.00792391
C  0.00151055 -0.00146926 -0.00806629
C  0.00544628 0.00216009 -0.00703400
C  0.00307683 0.00689629 -0.00574153
C  0.00327394 0.00718607 -0.00539843
C  0.00473158 0.00608960 0.00733361
C  -0.00328606 0.00884467 0.00281002
C  -0.00305661 0.00884353 0.00324566
C  -0.00443808 0.00517622 0.00703406
C  -0.00478826 0.00485001 0.00693741
C  -0.00734889 0.00488569 0.00212496
C  -0.00680681 0.00371350 -0.00343898
C  -0.00261577 0.00641560 -0.00564617
C  -0.00043818 0.00958551 -0.00177999
C  0.00004789 0.00965016 -0.00175930
C  0.00260042 0.00961381 0.00305953
C  0.00234562 0.00954893 0.00347150
C  0.00010999 0.00361083 0.00960267
C  0.00016801 0.00314807 0.00974528
C  -0.00376680 -0.00048167 0.00871195
C  -0.00417392 -0.00034107 0.00848344
C  -0.00635157 -0.00351535 0.00462527
C  -0.00831272 -0.00028756 0.00069410
C  -0.00827523 -0.00042244 0.00022506
C  -0.00689229 0.00324681 -0.00356484
C  -0.00232626 0.00619124 -0.00596645
C  -0.00329287 0.00102192 -0.00740023
C  -0.00366937 0.00077910 -0.00719952
C  -0.00305264 -0.00441082 -0.00565484
C  -0.00590632 -0.00515937 -0.00107208
C  -0.00572589 -0.00544493 -0.00071809
C  -0.00613697 -0.00393777 0.00450536
C  -0.00159505 -0.00550585 0.00707699
C  -0.00139859 -0.00521803 0.00742000
C  0.00430031 0.00631567 0.00740017
C  0.00497152 0.00065688 0.00907914
C  -0.00722531 0.00521687 0.00178559
60
MD Step 13 Units = [Angstroms / fs]
C  0.00886780 -0.00357824 -0.00079569
C  0.00840276 -0.00190469 0.00501920
C  0.00830687 -0.00241458 0.00487397
C  0.00984440 0.00166992 0.00065611
C  0.00980430 0.00181758 0.00117384
C  0.00873141 -0.00393920 -0.00041859
C  0.00448310 -0.00761644 -0.00193679
C  0.00131447 -0.00844080 0.00317305
C  0.00373712 -0.00491197 0.00747581
C  0.00405792 -0.00515516 0.00710833
C  0.00471845 0.00033261 0.00891957
C  0.00720795 0.00694067 0.00209930
C  0.00739720 0.00661702 0.00248834
C  0.00785426 0.00493994 -0.00332645
C  0.00762177 0.00541192 -0.00320144