60
MD Step 0 Units = [eV / Ang.]
C  0.78283618 -1.30938719 0.63526845
C  0.81043722 -1.41287028 0.27468472
C  1.20853951 0.71951082 0.86587021
C  1.11403285 0.46634965 1.12703915
C  1.28453269 -0.15252900 -1.02803941
C  1.35135021 0.20307482 -0.92906668
C  1.05354552 -1.05841695 0.70590126
C  1.24929264 -1.00744434 0.38911443
C  1.10072478 -1.22725014 0.12258631
C  -0.23163713 -0.20702728 1.62314227
C  1.43123765 0.54870136 0.61445852
C  1.27788030 0.14106455 1.03878237
C  0.46970101 1.47255377 -0.58338536
C  0.44087153 1.57538584 -0.22130802
C  1.41944254 -0.37701059 -0.75646413
C  1.56994704 -0.15814614 -0.48879525
C  1.52757802 0.20142948 -0.59464459
C  -0.09489814 -1.29716510 -1.01866793
C  -0.00076284 -1.04387871 -1.28068774
C  -0.97804862 -1.29803103 0.29599927
C  -0.80165441 -1.30053745 0.62836930
C  0.37288083 -0.99502335 -1.26581305
C  0.50706367 -1.21801099 -0.99358073
C  0.21849290 -1.40427634 -0.84157078
C  -0.03474736 0.73802423 -1.47878951
C  -0.30708372 0.48651271 -1.54834138
C  -0.14204607 0.15934638 -1.63778539
C  0.75544926 1.46941320 -0.04571876
C  1.47269324 0.19049636 0.72020450
C  -1.05331576 1.05845259 -0.70512205
C  0.00012211 1.04381769 1.28028902
C  0.09499841 1.29722062 1.01860628
C  -1.52756779 -0.20144853 0.59463911
C  -1.35133924 -0.20306053 0.92907038
C  -0.81054282 1.41277752 -0.27472301
C  -1.10072431 1.22718505 -0.12268752
C  -1.24922329 1.00745411 -0.38928753
C  0.97823135 1.29795844 -0.29591502
C  0.80170174 1.30054697 -0.62845339
C  -0.37272722 0.99503952 1.26583975
C  -0.21851135 1.40427177 0.84158213
C  0.03475503 -0.73803043 1.47886242
C  0.30689305 -0.48651098 1.54803197
C  -1.56978970 0.15811635 0.48895034
C  -1.41935443 0.37687586 0.75634981
C  -1.28452378 0.15253577 1.02808598
C  -1.11409826 -0.46640302 -1.12703624
C  -1.20821693 -0.71948281 -0.86601288
C  0.23163359 0.20706010 -1.62311186
C  0.29626571 0.56493750 -1.52277123
C  -1.43136340 -0.54866032 -0.61438787
C  -1.47271627 -0.19045798 -0.72019547
C  -1.27789883 -0.14100633 -1.03885253
C  -0.46963992 -1.47260292 0.58328026
C  -0.44055738 -1.57538890 0.22201298
C  -0.75618848 -1.46912990 0.04513427
C  0.14217034 -0.15934318 1.63798234
C  -0.50700146 1.21797952 0.99361462
C  -0.29628863 -0.56494411 1.52278580
C  -0.78283337 1.30938223 -0.63532292
60
MD Step 1 Units = [eV / Ang.]
C  0.79180916 -1.28262329 0.60821116
C  0.81650639 -1.37551175 0.28447221
C  1.20076090 0.68274101 0.85509500
C  1.11597117 0.45545436 1.08954800
C  1.28054600 -0.14190842 -0.99060729
C  1.34055555 0.17726320 -0.90173423
C  1.03477472 -1.05726251 0.67161707
C  1.21047206 -1.01150728 0.38720802
C  1.07719545 -1.20892227 0.14793181
C  -0.20884343 -0.22415768 1.59629317
C  1.40071378 0.52935044 0.62933706
C  1.26309845 0.16351921 1.01039564
C  0.48300013 1.44869672 -0.55537925
C  0.45708804 1.54093453 -0.23019933
C  1.40163992 -0.34355574 -0.74676040
C  1.53677392 -0.14707646 -0.50636153
C  1.49874360 0.17583701 -0.60133310
C  -0.06730860 -1.27065167 -1.01063124
C  0.01712495 -1.04323763 -1.24590962
C  -0.93944711 -1.29199570 0.29732642
C  -0.78105374 -1.29424881 0.59571892
C  0.35263705 -0.99936202 -1.23260864
C  0.47305704 -1.19954999 -0.98811994
C  0.21402025 -1.36675432 -0.85164734
C  -0.03042930 0.70104298 -1.46672498
C  -0.27497544 0.47516535 -1.52905650
C  -0.12670893 0.18141580 -1.60937869
C  0.73958882 1.44595371 -0.07267727
C  1.43786171 0.20775204 0.72421774
C  -1.03455480 1.05729625 -0.67087002
C  -0.01774101 1.04317822 1.24553086
C  0.06740437 1.27070439 1.01057087
C  -1.49873134 -0.17585669 0.60132901
C  -1.34054450 -0.17724963 0.90173725
C  -0.81660733 1.37542332 -0.28450852
C  -1.07719554 1.20885916 -0.14802976
C  -1.21040442 1.01151558 -0.38737059
C  0.93962102 1.29192633 -0.29724574
C  0.78110127 1.29425796 -0.59580116
C  -0.35249194 0.99937681 1.23263381
C  -0.21403838 1.36675038 0.85165799
C  0.03043454 -0.70104982 1.46679551
C  0.27479318 -0.47516294 1.52875596
C  -1.53662266 0.14704999 0.50650983
C  -1.40155484 0.34342716 0.74665019
C  -1.28053635 0.14191282 0.99065438
C  -1.11603333 -0.45550631 -1.08954711
C  -1.20044745 -0.68271435 -0.85523321
C  0.20883836 0.22418838 -1.59626387
C  0.26671974 0.54556348 -1.50607954
C  -1.40083429 -0.52931047 -0.62927007
C  -1.43788257 -0.20771554 -0.72420999
C  -1.26311754 -0.16346234 -1.01046220
C  -0.48293981 -1.44874331 0.55528131
C  -0.45678767 -1.54093780 0.23087771
C  -0.74029937 -1.44567565 0.07211600
C  0.12682705 -0.18141623 1.60956443
C  -0.47299844 1.19952148 0.98815241
C  -0.26674290 -0.54556969 1.50609426
C  -0.79180555 1.28261823 -0.60826289
60
MD Step 2 Units = [eV / Ang.]
C  0.81759000 -1.20352475 0.52865159
C  0.83376161 -1.26534722 0.31294748
C  1.17726764 0.57472091 0.82305214
C  1.12096499 0.42329549 0.97916582
C  1.26810238 -0.11073424 -0.88046298
C  1.30815091 0.10161328 -0.82120270
C  0.97921644 -1.05324097 0.57087911
C  1.09612164 -1.02278642 0.38138856
C  1.00769136 -1.15454864 0.22202309
C  -0.14200422 -0.27414377 1.51674907
C  1.31054544 0.47239655 0.67249352
C  1.21907721 0.22913262 0.92671372
C  0.52162425 1.37800312 -0.47308857
C  0.50425605 1.43918008 -0.25607162
C  1.34869513 -0.24545108 -0.71791398
C  1.43876887 -0.11459556 -0.55745525
C  1.41345174 0.10084652 -0.62053397
C  0.01346665 -1.19229763 -0.98650482
C  0.06946041 -1.04072611 -1.14337760
C  -0.82590189 -1.27355275 0.30102756
C  -0.72029553 -1.27505773 0.49980926
C  0.29318191 -1.01145206 -1.13469338
C  0.37324800 -1.14480316 -0.97153804
C  0.20080969 -1.25611374 -0.88061371
C  -0.01776837 0.59239573 -1.43053449
C  -0.18085742 0.44167111 -1.47169135
C  -0.08174367 0.24588419 -1.52527088
C  0.69273221 1.37642770 -0.15153228
C  1.33505099 0.25812379 0.73551683
C  -0.97902715 1.05326624 -0.57021980
C  -0.07001133 1.04067047 1.14305583
C  -0.01338474 1.19234128 0.98644653
C  -1.41343343 -0.10086332 0.62053358
C  -1.30814043 -0.10160221 0.82120380
C  -0.83384979 1.26527423 -0.31297975
C  -1.00769635 1.15449277 -0.22210551
C  -1.09605790 1.02279311 -0.38152834
C  0.82604840 1.27348836 -0.30096163
C  0.72034385 1.27506463 -0.49987803
C  -0.29305491 1.01146478 1.13471156
C  -0.20082475 1.25611245 0.88062146
C  0.01776796 -0.59240176 1.43060099
C  0.18070379 -0.44167360 1.47141118
C  -1.43864182 0.11457159 0.55758008
C  -1.34861104 0.24534003 0.71782274
C  -1.26809175 0.11073534 0.88050413
C  -1.12102344 -0.42333937 -0.97916566
C  -1.17697590 -0.57469929 -0.82317411
C  0.14200181 0.27416658 -1.51672604
C  0.18009341 0.48854366 -1.45631132
C  -1.31065033 -0.47235998 -0.67243869
C  -1.33506673 -0.25809194 -0.73551101
C  -1.21909383 -0.22908420 -0.92677044
C  -0.52156699 -1.37804290 0.47300347
C  -0.50399259 -1.43918397 0.25668583
C  -0.69336760 -1.37615916 0.15102839
C  0.08183951 -0.24589206 1.52543219
C  -0.37319989 1.14478122 0.97156647
C  -0.18011742 -0.48854882 1.45632713
C  -0.81758305 1.20352059 -0.52869719
60
MD Step 3 Units = [eV / Ang.]
C  0.85680113 -1.07577065 0.40152478
C  0.85942907 -1.08824713 0.35744019
C  1.13767943 0.40240239 0.77062609
C  1.12662891 0.37148903 0.80229302
C  1.24583905 -0.06111349 -0.70416702
C  1.25417739 -0.01846390 -0.69194727
C  0.88921508 -1.04475525 0.41010846
C  0.91272617 -1.03860687 0.37140080
C  0.89553381 -1.06606929 0.33898207
C  -0.03580553 -0.35279862 1.38766015
C  1.16504040 0.38120449 0.73952515
C  1.14687535 0.33264083 0.79225426
C  0.58178010 1.26321895 -0.34174604
C  0.57798263 1.27505898 -0.29655176
C  1.26209466 -0.08950988 -0.67076492
C  1.28058681 -0.06289790 -0.63729526
C  1.27546437 -0.01818129 -0.64971324
C  0.14143426 -1.06574830 -0.94629453
C  0.15224783 -1.03465744 -0.97861485
C  -0.64432504 -1.24177347 0.30628646
C  -0.62257426 -1.24208842 0.34683103
C  0.19838450 -1.02857910 -0.97726251
C  0.21434954 -1.05575767 -0.94331322
C  0.17947294 -1.07827775 -0.92474517
C  0.00232904 0.41905108 -1.37031649
C  -0.03136070 0.38771167 -1.37783914
C  -0.01032948 0.34754210 -1.38893646
C  0.61709526 1.26349711 -0.27617774
C  1.16946683 0.33742158 0.75194453
C  -0.88907660 1.04476754 -0.40958954
C  -0.15269547 1.03460798 0.97838565
C  -0.14137389 1.06577768 0.94623829
C  -1.27543864 0.01817032 0.64971687
C  -1.25416652 0.01847113 0.69194708
C  -0.85949804 1.08819679 -0.35746658
C  -0.89554599 1.06602686 -0.33903946
C  -0.91266797 1.03860977 -0.37150675
C  0.64442871 1.24171691 -0.30624438
C  0.62262291 1.24209225 -0.34687747
C  -0.19828505 1.02858868 0.97726910
C  -0.17948248 1.07827750 0.92475037
C  -0.00233671 -0.41905355 1.37037540
C  0.03125427 -0.38772371 1.37759211
C  -1.28049930 0.06287748 0.63738210
C  -1.26201270 0.08942842 0.67070468
C  -1.24582696 0.06110845 0.70419570
C  -1.12668241 -0.37151787 -0.80229187
C  -1.13742144 -0.40238977 -0.77072238
C  0.03580844 0.35281087 -1.38764677
C  0.04247248 0.39721472 -1.37452969
C  -1.16512189 -0.38117263 -0.73948955
C  -1.16947375 -0.33739644 -0.75194140
C  -1.14688668 -0.33260863 -0.79229457
C  -0.58172743 -1.26324683 0.34167947
C  -0.57777746 -1.27506528 0.29706443
C  -0.61761125 -1.26324185 0.27576635
C  0.01038805 -0.34756333 1.38905756
C  -0.21431825 1.05574543 0.94333550
C  -0.04249855 -0.39721960 1.37454755
C  -0.85678896 1.07576889 -0.40155919
60
MD Step 4 Units = [eV / Ang.]
C  0.90395935 -0.90583209 0.23524026
C  0.88903997 -0.85436872 0.41354027
C  1.08163131 0.17760415 0.69950023
C  1.12921730 0.30284690 0.56991010
C  1.21176484 0.00339094 -0.47294543
C  1.17901129 -0.17385382 -0.52168485
C  0.76894092 -1.02936592 0.20022733
C  0.67143421 -1.05471358 0.35690502
C  0.74654510 -0.94701870 0.48898713
C  0.10184238 -0.45314979 1.21467379
C  0.97175001 0.26153317 0.82319288
C  1.04856284 0.46525687 0.61482885
C  0.65721227 1.10928190 -0.17025495
C  0.67100252 1.05719968 -0.34770901
C  1.14465449 0.11276249 -0.60689618
C  1.07039056 0.00429907 -0.73797750
C  1.09143686 -0.17220947 -0.68475135
C  0.30652052 -0.89741293 -0.89024626
C  0.25879162 -1.02244130 -0.76116871
C  -0.40651834 -1.19539700 0.31180364
C  -0.49343018 -1.19416775 0.14730409
C  0.07481520 -1.04642040 -0.76931469
C  0.00772195 -0.93602368 -0.90279606
C  0.15109220 -0.84348620 -0.97798763
C  0.02834072 0.19285456 -1.28657636
C  0.16232453 0.31621669 -1.25052191
C  0.08217384 0.47769459 -1.20656790
C  0.51656470 1.11196061 -0.43639798
C  0.95015958 0.43866627 0.77004374
C  -0.76887029 1.02936233 -0.19989263
C  -0.25910405 1.02240036 0.76106234
C  -0.30648998 0.89742269 0.89019429
C  -1.09140062 0.17220622 0.68476049
C  -1.17900004 0.17385680 0.52168180
C  -0.88908477 0.85434784 -0.41355848
C  -0.74656501 0.94699312 -0.48901364
C  -0.67138347 1.05471287 -0.35696848
C  0.40656820 1.19535007 -0.31179158
C  0.49347793 1.19416751 -0.14732155
C  -0.07474858 1.04642677 0.76930556
C  -0.15109338 0.84348803 0.97798869
C  -0.02835790 -0.19285287 1.28662664
C  -0.16236926 -0.31624187 1.25031779
C  -1.07035520 -0.00431465 0.73801548
C  -1.14457685 -0.11280497 0.60687543
C  -1.21175125 -0.00340276 0.47295998
C  -1.12926413 -0.30285681 -0.56990952
C  -1.08141743 -0.17760262 -0.69956348
C  -0.10183419 0.45314830 -1.21467258
C  -0.13587919 0.27730184 -1.26285767
C  -0.97180135 -0.26150864 -0.82318082
C  -0.95015489 -0.43864988 -0.77004515
C  -1.04856752 -0.46524562 -0.61484649
C  -0.65716669 -1.10929482 0.17021291
C  -0.67086949 -1.05721081 0.34808973
C  -0.51692782 -1.11172133 0.43610640
C  -0.08216297 -0.47773346 1.20663713
C  -0.00771262 0.93602376 0.90281089
C  0.13585221 -0.27730553 1.26287714
C  -0.90394196 0.90583157 -0.23526119
60
MD Step 5 Units = [eV / Ang.]
C  0.95169014 -0.70330596 0.04184697
C  0.91665431 -0.57852156 0.47517218
C  1.00909882 -0.08281699 0.61238310
C  1.12392522 0.22150178 0.29786876
C  1.16360441 0.07771951 -0.20295552
C  1.08372444 -0.35169366 -0.32160269
C  0.62466583 -1.00407920 -0.04316661
C  0.38837970 -1.06554532 0.33758089
C  0.56933117 -0.80284504 0.65831401
C  0.25975908 -0.56550340 1.00636408
C  0.74183172 0.12167955 0.91359301
C  0.92755334 0.61471303 0.40580547
C  0.73934193 0.92370837 0.02866406
C  0.77330375 0.79833468 -0.40412099
C  1.00089370 0.34508251 -0.52882911
C  0.82025527 0.08172240 -0.84861702
C  0.87131064 -0.34848984 -0.72011618
C  0.49456567 -0.69679758 -0.81911404
C  0.37970337 -1.00086480 -0.50494156
C  -0.12942517 -1.13317718 0.31587516
C  -0.34095033 -1.13017455 -0.08376773
C  -0.06816641 -1.05931366 -0.52397484
C  -0.23049860 -0.79115078 -0.84947699
C  0.11726943 -0.56666691 -1.03218819
C  0.05811709 -0.06928720 -1.18061711
C  0.38438604 0.23148876 -1.09459941
C  0.18819442 0.62421239 -0.98750947
C  0.39689687 0.92913821 -0.61788160
C  0.69041317 0.55214796 0.78526039
C  -0.62467566 1.00405817 0.04328500
C  -0.37985765 1.00083400 0.50498118
C  -0.49456788 0.69678500 0.81906775
C  -0.87126437 0.34849554 0.72013031
C  -1.08371247 0.35169119 0.32159753
C  -0.91667207 0.57853555 -0.47518163
C  -0.56935958 0.80283947 -0.65830524
C  -0.38833688 1.06554112 -0.33759812
C  0.12941154 1.13314082 -0.31589759
C  0.34099717 1.13016951 0.08378415
C  0.06819580 1.05931640 0.52394935
C  -0.11726227 0.56666975 1.03218562
C  -0.05814407 0.06929415 1.18065701
C  -0.38435755 -0.23153043 1.09444529
C  -0.82028199 -0.08173166 0.84859899
C  -1.00082351 -0.34507747 0.52885244
C  -1.16358898 -0.07773895 0.20295170
C  -1.12396437 -0.22149144 -0.29786658
C  -1.00893582 0.08280496 -0.61240733
C  -0.25974495 0.56548593 -1.00637683
C  -0.34045429 0.13705462 -1.12488258
C  -0.74184809 -0.12166292 -0.91360881
C  -0.69039527 -0.55214288 -0.78526530
C  -0.92754963 -0.61472554 -0.40579733
C  -0.73930523 -0.92370358 -0.02868052
C  -0.77325193 -0.79835344 0.40435130
C  -0.39708244 -0.92891490 0.61772851
C  -0.18823826 -0.62427269 0.98751844
C  0.23048389 0.79116558 0.84948264
C  0.34042608 -0.13705806 1.12490393
C  -0.95166826 0.70330668 -0.04185230
60
MD Step 6 Units = [eV / Ang.]
C  0.99104165 -0.48108092 -0.16301053
C  0.93515968 -0.28026911 0.53476408
C  0.92069450 -0.35706242 0.51317073
C  1.10523881 0.13295423 0.00690973
C  1.09915100 0.15535895 0.08473283
C  0.97039903 -0.53553179 -0.10640514
C  0.46491361 -0.96565587 -0.29988371
C  0.08472277 -1.06457503 0.31322858
C  0.37540901 -0.64112444 0.82958934
C  0.42361759 -0.67765784 0.77448701
C  0.49021846 -0.02752243 0.99847418
C  0.78886375 0.76549482 0.18017476
C  0.81752296 0.71682980 0.23854938
C  0.87240078 0.51547893 -0.45902646
C  0.83730694 0.58656568 -0.44016919
C  0.54635716 0.16259029 -0.95564676
C  0.62852837 -0.53072391 -0.74909956
C  0.68752853 -0.47666676 -0.73439619
C  0.50305931 -0.96640092 -0.22827296
C  0.16491574 -1.05421951 0.31649460
C  -0.17583671 -1.04937639 -0.32698851
C  -0.21847044 -1.06059767 -0.25859036
C  -0.47954564 -0.62883165 -0.78323610
C  0.08015555 -0.26753229 -1.07743792
C  0.08890229 -0.34550358 -1.05488083
C  0.61457579 0.13925430 -0.91706744
C  0.29804095 0.77177683 -0.74450272
C  0.26580782 0.72510116 -0.80247202
C  0.40788205 0.66563560 0.79219462
C  -0.46501231 0.96561859 0.29976226
C  -0.50303864 0.96638300 0.22847372
C  -0.68756239 0.47663188 0.73435948
C  -0.62847534 0.53073631 0.74911718
C  -0.97038629 0.53552297 0.10639740
C  -0.93514889 0.28031908 -0.53476285
C  -0.37544484 0.64114000 -0.82954531
C  -0.08469274 1.06456601 -0.31319419
C  -0.16499314 1.05419755 -0.31654997
C  0.17587993 1.04936668 0.32703691
C  0.21845894 1.06059593 0.25855008
C  -0.08013989 0.26753683 1.07743087
C  -0.08893932 0.34551408 1.05490819
C  -0.61446952 -0.13931147 0.91697186
C  -0.54644835 -0.16258961 0.95557104
C  -0.83724956 -0.58651068 0.44023543
C  -1.09913328 -0.15538492 -0.08475424
C  -1.10526735 -0.13292379 -0.00690682
C  -0.92058831 0.35703609 -0.51315455
C  -0.42360051 0.67762352 -0.77451408
C  -0.55266085 -0.01274887 -0.96597436
C  -0.49019917 0.02752820 -0.99851690
C  -0.40785295 -0.66564072 -0.79220272
C  -0.78885146 -0.76553118 -0.18014031
C  -0.81749526 -0.71680671 -0.23853484
C  -0.87243692 -0.51550537 0.45909032
C  -0.26579888 -0.72489972 0.80246991
C  -0.29813931 -0.77186113 0.74444377
C  0.47950728 0.62886048 0.78323250
C  0.55263395 0.01274713 0.96599609
C  -0.99101591 0.48108176 0.16302071
60
MD Step 7 Units = [eV / Ang.]
C  1.01194205 -0.25504029 -0.36060026
C  0.93665811 0.01660723 0.58358204
C  0.81782166 -0.61912285 0.40693638
C  1.06731399 0.04393291 -0.27797273
C  1.01654231 0.22857451 0.36479096
C  0.84224831 -0.70593267 0.10611072
C  0.30029984 -0.91089037 -0.54580429
C  -0.21397416 -1.04470544 0.28383046
C  0.17893968 -0.47145394 0.98247343
C  0.57645736 -0.77539274 0.53377822
C  0.23526006 -0.17304477 1.06379692
C  0.63911497 0.89945886 -0.04386052
C  0.87951275 0.50161915 0.43972977
C  0.95388212 0.22950533 -0.50460584
C  0.66232940 0.81247370 -0.34557785
C  0.26858840 0.23884350 -1.04340936
C  0.37974806 -0.69964923 -0.76415848
C  0.86415978 -0.25275310 -0.63843472
C  0.61485128 -0.91550016 0.04656465
C  0.45006342 -0.95821339 0.31147509
C  -0.01111558 -0.95165149 -0.55921983
C  -0.36168603 -1.04301116 0.00574201
C  -0.71474906 -0.45879469 -0.70449545
C  0.04240636 0.02996951 -1.10257442
C  0.11745076 -0.60969119 -0.91307627
C  0.82893426 0.04651278 -0.72702779
C  0.40024664 0.90248625 -0.49343964
C  0.13278665 0.51252015 -0.96887232
C  0.12413402 0.76487460 0.78490858
C  -0.30048494 0.91083896 0.54544628
C  -0.61465575 0.91549746 -0.04620774
C  -0.86422220 0.25269646 0.63841134
C  -0.37969201 0.69966610 0.76417753
C  -0.84223466 0.70591903 -0.10612082
C  -0.93661947 -0.01652340 -0.58357138
C  -0.17898092 0.47149013 -0.98239659
C  0.21398708 1.04469168 -0.28374740
C  -0.45019853 0.95820727 -0.31155726
C  0.01115308 0.95163761 0.55929566
C  0.36163301 1.04300463 -0.00579398
C  -0.04238350 -0.02996379 1.10256369
C  -0.11749475 0.60970313 0.91308992
C  -0.82875545 -0.04658290 0.72699149
C  -0.26873962 -0.23883150 1.04328025
C  -0.66228977 -0.81236857 0.34568246
C  -1.01652238 -0.22860689 -0.36482918
C  -1.06733000 -0.04388474 0.27797524
C  -0.81777452 0.61908291 -0.40687926
C  -0.57643971 0.77534291 -0.53381799
C  -0.75050927 -0.15912860 -0.79329769
C  -0.23520593 0.17303895 -1.06386489
C  -0.12409514 -0.76489018 -0.78491961
C  -0.63909463 -0.89951667 0.04392192
C  -0.87949555 -0.50157772 -0.43968351
C  -0.95400561 -0.22953957 0.50450077
C  -0.13258355 -0.51234800 0.96901690
C  -0.40039245 -0.90259040 0.49331664
C  0.71468993 0.45883658 0.70448266
C  0.75048420 0.15912802 0.79331867
C  -1.01191443 0.25504011 0.36062643
60
MD Step 8 Units = [eV / Ang.]
C  1.00387632 -0.04304156 -0.53032099
C  0.91300586 0.28565030 0.61230603
C  0.70260736 -0.84047389 0.29960585
C  1.00438148 -0.03804440 -0.52914886
C  0.91440774 0.28891409 0.60928307
C  0.70343117 -0.84174918 0.29620888
C  0.14284630 -0.83684190 -0.75445820
C  -0.47940655 -0.99875951 0.24956589
C  -0.00419124 -0.30484228 1.09500038
C  0.69979932 -0.84341683 0.30100905
C  -0.00246204 -0.30050799 1.09467018
C  0.48611632 0.99702879 -0.24607319
C  0.91229384 0.29286239 0.61061767
C  1.00236241 -0.03619303 -0.53251014
C  0.48580551 0.99583114 -0.25048399
C  0.00927478 0.30168074 -1.09519847
C  0.14377220 -0.83431303 -0.75742549
C  1.00140453 -0.04274124 -0.53427507
C  0.69991421 -0.84484143 0.29481189
C  0.69689844 -0.84547087 0.29859542
C  0.13870520 -0.83752094 -0.75508896
C  -0.48202387 -0.99919198 0.24554283
C  -0.90914237 -0.29218292 -0.61420877
C  0.00700621 0.29920446 -1.09593548
C  0.14022336 -0.83321762 -0.75996063
C  1.00136846 -0.03891157 -0.53510942
C  0.48232661 0.99703531 -0.25235410
C  0.00849041 0.30585124 -1.09403926
C  -0.13674141 0.83452943 0.75733816
C  -0.14310418 0.83678148 0.75388995
C  -0.69955844 0.84485627 -0.29432325
C  -1.00148776 0.04266648 0.53426933
C  -0.14371968 0.83433085 0.75744278
C  -0.70341601 0.84173092 -0.29622070
C  -0.91294187 -0.28553805 -0.61228750
C  0.00414878 0.30489633 -1.09489854
C  0.47939519 0.99873978 -0.24943766
C  -0.69707803 0.84548252 -0.29869739
C  -0.13867740 0.83750428 0.75518670
C  0.48193078 0.99918045 -0.24560258
C  -0.00697838 -0.29920016 1.09592237
C  -0.14027249 0.83323136 0.75995955
C  -1.00112998 0.03883328 0.53512929
C  -0.00947274 -0.30165763 1.09502725
C  -0.48578775 -0.99568271 0.25061781
C  -0.91438591 -0.28894995 -0.60933421
C  -1.00438324 0.03810552 0.52914920
C  -0.70261831 0.84042383 -0.29950974
C  -0.69978581 0.84335437 -0.30105724
C  -0.91003679 -0.28774880 -0.61537600
C  0.00254531 0.30048817 -1.09475862
C  0.13678677 -0.83455396 -0.75735006
C  -0.48608899 -0.99710332 0.24615734
C  -0.91228670 -0.29280492 -0.61053862
C  -1.00256995 0.03615450 0.53224119
C  -0.00810381 -0.30571699 1.09431732
C  -0.48250839 -0.99715309 0.25217566
C  0.90906772 0.29223458 0.61418814
C  0.91001809 0.28775029 0.61539332
C  -1.00385054 0.04303862 0.53036065
60
MD Step 9 Units = [eV / Ang.]
C  0.95683744 0.13693734 -0.65175992
C  0.85652653 0.50041866 0.61191177
C  0.57758362 -0.99291012 0.19730803
C  0.91120386 -0.10543479 -0.71913518
C  0.79188346 0.32804130 0.79045959
C  0.55852438 -0.92219317 0.44421511
C  0.00472105 -0.74102567 -0.89965606
C  -0.68338206 -0.92008022 0.21075245
C  -0.15801129 -0.15253030 1.14569925
C  0.77545556 -0.86682821 0.09321337
C  -0.20225566 -0.39562349 1.07673798
C  0.33799446 1.03907796 -0.40626201
C  0.90328888 0.10559242 0.72984898
C  1.00294036 -0.25812229 -0.53464249
C  0.31790596 1.11008347 -0.16048152
C  -0.20913397 0.34241952 -1.09483457
C  -0.06041464 -0.91411722 -0.72141890
C  1.07664298 0.13556484 -0.42528024
C  0.74339520 -0.75156131 0.49174182
C  0.87653225 -0.71678307 0.27579192
C  0.25911858 -0.70798074 -0.88951168
C  -0.56388100 -0.92229862 0.43734432
C  -1.03612651 -0.14036296 -0.51368091
C  -0.02303850 0.51356479 -1.04641083
C  0.15374659 -0.98776756 -0.60074433
C  1.10620864 -0.10917677 -0.35230114
C  0.53199875 1.03657942 -0.03951585
C  -0.09636329 0.11979797 -1.15542475
C  -0.35060568 0.85965160 0.70381074
C  -0.00502797 0.74096043 0.89893042
C  -0.74291029 0.75159486 -0.49116627
C  -1.07673686 -0.13565079 0.42529532
C  0.06045462 0.91413172 0.72142916
C  -0.55850804 0.92216945 -0.44422546
C  -0.85644320 -0.50028734 -0.61188772
C  0.15797420 0.15259894 -1.14558159
C  0.68334148 0.92005394 -0.21058854
C  -0.87674134 0.71681387 -0.27590325
C  -0.25910152 0.70796277 0.88962047
C  0.56375060 0.92228165 -0.43740304
C  0.02306914 -0.51356044 1.04639587
C  -0.15379538 0.98777734 0.60072901
C  -1.10593235 0.10909850 0.35236887
C  0.20890850 -0.34238860 1.09463704
C  -0.31791300 -1.10990083 0.16063343
C  -0.79185992 -0.32807736 -0.79051910
C  -0.91118982 0.10550393 0.71913138
C  -0.57764891 0.99285405 -0.19717616
C  -0.77545084 0.86675862 -0.09326458
C  -1.00767175 -0.38435974 -0.44112145
C  0.20236216 0.39558844 -1.07684134
C  0.35064927 -0.85968131 -0.70382138
C  -0.33796161 -1.03916401 0.40636351
C  -0.90329196 -0.10552164 -0.72973833
C  -1.00322371 0.25808395 0.53422582
C  0.09690702 -0.11971644 1.15580537
C  -0.53219679 -1.03669651 0.03930233
C  1.03604640 0.14041879 0.51365342
C  1.00766147 0.38436365 0.44113279
C  -0.95681552 -0.13694266 0.65180905
60
MD Step 10 Units = [eV / Ang.]
C  0.86253640 0.26930821 -0.70743733
C  0.76091537 0.63811763 0.57481436
C  0.44520591 -1.05231549 0.10546497
C  0.78362450 -0.15172345 -0.82432853
C  0.64856540 0.33884604 0.88451814
C  0.41175699 -0.92957692 0.53319741
C  -0.10348335 -0.62160334 -0.95899858
C  -0.80166527 -0.80327943 0.16776041
C  -0.26868931 -0.02436757 1.11638683
C  0.78794040 -0.83303801 -0.07474257
C  -0.34620128 -0.44613528 0.99798038
C  0.20196877 1.00942043 -0.50702378
C  0.84195029 -0.04706075 0.77915342
C  0.94308644 -0.41594913 -0.50419607
C  0.16762046 1.13260498 -0.08051147
C  -0.36718919 0.35365727 -1.02871710
C  -0.21631464 -0.92153743 -0.64994128
C  1.07066342 0.26672729 -0.31456095
C  0.73269264 -0.63349647 0.61604517
C  0.96420896 -0.57315248 0.24139001
C  0.33761063 -0.56420759 -0.94104726
C  -0.59392547 -0.80678306 0.56091234
C  -1.07301130 -0.01328820 -0.40427075
C  -0.04512279 0.65012106 -0.94479304
C  0.15506387 -1.04913200 -0.44022704
C  1.12159862 -0.15750498 -0.18831837
C  0.53880965 1.00516998 0.12915101
C  -0.17248656 -0.03278881 -1.13390518
C  -0.49660292 0.82761107 0.61969805
C  0.10316029 0.62153976 0.95818680
C  -0.73212007 0.63355149 -0.61544738
C  -1.07075688 -0.26681745 0.31460290
C  0.21633258 0.92154142 0.64993985
C  -0.41173950 0.92954884 -0.53320464
C  -0.76081825 -0.63798246 -0.57478750
C  0.26866388 0.02444407 -1.11626667
C  0.80158734 0.80324618 -0.16756945
C  -0.96442328 0.57320444 -0.24149707
C  -0.33760895 0.56419038 0.94115509
C  0.59376198 0.80676045 -0.56096307
C  0.04515360 -0.65011882 0.94477816
C  -0.15510803 1.04913534 0.44019617
C  -1.12131511 0.15743717 0.18842422
C  0.36696570 -0.35362077 1.02851563
C  -0.16765535 -1.13240473 0.08066634
C  -0.64854159 -0.33887760 -0.88457899
C  -0.78359192 0.15179224 0.82431714
C  -0.44532238 1.05226347 -0.10530259
C  -0.78795092 0.83296806 0.07469559
C  -1.02334118 -0.43672738 -0.27848368
C  0.34632280 0.44608342 -0.99809070
C  0.49663983 -0.82764382 -0.61970573
C  -0.20193367 -1.00950718 0.50713386
C  -0.84196224 0.04713945 -0.77901020
C  -0.94343526 0.41591872 0.50365090
C  0.17315243 0.03279773 1.13435336
C  -0.53899958 -1.00526727 -0.12937705
C  1.07293481 0.01334277 0.40423852
C  1.02334253 0.43673424 0.27848600
C  -0.86252029 -0.26931573 0.70749101
60
MD Step 11 Units = [eV / Ang.]
C  0.71576296 0.34357125 -0.68578299
C  0.62226317 0.68351781 0.49612766
C  0.30738943 -1.00277490 0.02783190
C  0.61921071 -0.17254098 -0.82903757
C  0.48451359 0.31664942 0.87565964
C  0.26623090 -0.85230621 0.55187326
C  -0.17458886 -0.47764670 -0.91768881
C  -0.81811657 -0.64509564 0.12092711
C  -0.32692791 0.07291297 0.99523482
C  0.72709309 -0.73388951 -0.19275107
C  -0.42225080 -0.44390207 0.85071253
C  0.08307214 0.89752752 -0.53673853
C  0.72151526 -0.15615639 0.74645485
C  0.81474318 -0.49601340 -0.43677598
C  0.04117458 1.04853977 -0.01398601
C  -0.45181335 0.33052189 -0.88809828
C  -0.31277399 -0.84508510 -0.53910012
C  0.97090635 0.34034792 -0.20440803
C  0.65957734 -0.48950259 0.65349726
C  0.94351591 -0.41556349 0.19437052
C  0.36581739 -0.40730073 -0.89554423
C  -0.56336016 -0.64927554 0.60272329
C  -1.00486025 0.08223971 -0.28711629
C  -0.05749117 0.69355532 -0.78528772
C  0.14223407 -1.00132340 -0.28191147
C  1.03320866 -0.17935517 -0.04989447
C  0.49589656 0.89243973 0.24284458
C  -0.21363414 -0.14314396 -1.01701814
C  -0.56075180 0.73021043 0.50216509
C  0.17428846 0.47759016 0.91688112
C  -0.65897476 0.48957944 -0.65295004
C  -0.97098793 -0.34043596 0.20447731
C  0.31276348 0.84507679 0.53908315
C  -0.26621253 0.85227520 -0.55187581
C  -0.62216227 -0.68339072 -0.49610225
C  0.32691993 -0.07283325 -0.99512327
C  0.81800114 0.64505527 -0.12072447
C  -0.94371536 0.41563329 -0.19446227
C  -0.36583265 0.40728620 0.89564233
C  0.56317426 0.64924818 -0.60276123
C  0.05751977 -0.69355868 0.78527606
C  -0.14226906 1.00132030 0.28186707
C  -1.03294678 0.17930571 0.05002019
C  0.45161779 -0.33048511 0.88791588
C  -0.04123548 -1.04834013 0.01412851
C  -0.48449073 -0.31667210 -0.87571857
C  -0.61916169 0.17260318 0.82901924
C  -0.30754361 1.00273300 -0.02764653
C  -0.72712059 0.73382614 0.19271437
C  -0.94387321 -0.43673146 -0.13303330
C  0.42237492 0.44383308 -0.85082083
C  0.56077525 -0.73024284 -0.50216704
C  -0.08303652 -0.89760874 0.53684876
C  -0.72153677 0.15623900 -0.74628672
C  -0.81513937 0.49599607 0.43614011
C  0.21437205 0.14307188 1.01748344
C  -0.49605529 -0.89249930 -0.24305098
C  1.00479757 -0.08219217 0.28708141
C  0.94388983 0.43674174 0.13302419
C  -0.71575609 -0.34358210 0.68583740
60
MD Step 12 Units = [eV / Ang.]
C  0.51570178 0.35652277 -0.58371361
C  0.44007197 0.63223428 0.37484645
C  0.16522607 -0.84011367 -0.03421928
C  0.41798890 -0.16660113 -0.72893704
C  0.30043345 0.26026893 0.75957831
C  0.12340481 -0.68752555 0.49704985
C  -0.20631970 -0.30949999 -0.77183103
C  -0.72822963 -0.44529590 0.07054084
C  -0.32991862 0.13705326 0.77950280
C  0.59037772 -0.56754508 -0.25753690
C  -0.42676206 -0.38670666 0.63343539
C  -0.01681267 0.70098241 -0.49207797
C  0.54062630 -0.21877701 0.62856578
C  0.61623150 -0.49422845 -0.33145755
C  -0.05919117 0.85415556 0.03787743
C  -0.45905541 0.27177188 -0.67116335
C  -0.34632024 -0.68191841 -0.38828042
C  0.77434196 0.35325280 -0.09590833
C  0.52209457 -0.31986650 0.60002199
C  0.81002462 -0.24494654 0.13465073
C  0.34131856 -0.23821708 -0.74930653
C  -0.46990065 -0.44950954 0.55888225
C  -0.82786017 0.14393989 -0.16301690
C  -0.05960843 0.63949402 -0.56697651
C  0.11478516 -0.84016080 -0.12742859
C  0.83746862 -0.17338566 0.06054830
C  0.40155572 0.69600634 0.29811130
C  -0.21791029 -0.20839322 -0.80182381
C  -0.53894282 0.56560827 0.35091698
C  0.20607996 0.30945760 0.77111816
C  -0.52151934 0.31996480 -0.59959872
C  -0.77440261 -0.35333145 0.09600638
C  0.34627551 0.68189639 0.38824432
C  -0.12338601 0.68749213 -0.49704559
C  -0.43997529 -0.63213179 -0.37482551
C  0.32993373 -0.13697625 -0.77941267
C  0.72807827 0.44524947 -0.07034165
C  -0.81018793 0.24503297 -0.13471529
C  -0.34135472 0.23820810 0.74938407
C  0.46970326 0.44947824 -0.55890097
C  0.05963299 -0.63950144 0.56696923
C  -0.11480471 0.84014601 0.12737203
C  -0.83725982 0.17336450 -0.06041521
C  0.45891562 -0.27174021 0.67102247
C  0.05910491 -0.85397676 -0.03776200
C  -0.30041367 -0.26027840 -0.75962928
C  -0.41792230 0.16664953 0.72890979
C  -0.16540952 0.84009022 0.03441809
C  -0.59042327 0.56749677 0.25751732
C  -0.76598583 -0.38213005 -0.00690825
C  0.42687926 0.38662169 -0.63353243
C  0.53894674 -0.56563760 -0.35091058
C  0.01684681 -0.70104911 0.49217890
C  -0.54065537 0.21885700 -0.62838125
C  -0.61665471 0.49423152 0.33076834
C  0.21866802 0.20822708 0.80226192
C  -0.40166048 -0.69600994 -0.29827324
C  0.82782008 -0.14390539 0.16298201
C  0.76601782 0.38214220 0.00688572
C  -0.51570728 -0.35653704 0.58376333
60
MD Step 13 Units = [eV / Ang.]
C  0.26695303 0.31338766 -0.40810844
C  0.21809940 0.49251929 0.21462887
C  0.01912053 -0.57401264 -0.08199107
C  0.18315357 -0.13619327 -0.53298501
C  0.09807859 0.17264408 0.54543118
C  -0.01691972 -0.44274307 0.37499268
C  -0.20202400 -0.11927306 -0.53037384