60
MD Step 0 Units = [Angstroms]
C  -2.96219017 2.11017017 -0.06479000
C  -2.84897017 1.69937017 -1.49226000
C  -3.10217017 0.34396017 -1.86797000
C  -3.47934017 -0.65812983 -0.83219000
C  -3.58792017 -0.26404983 0.53723000
C  -3.32398017 1.14884017 0.92888000
C  -1.88684017 3.10235017 0.21536000
C  -1.10906017 3.30478017 -1.03897000
C  -1.70372017 2.43771017 -2.09435000
C  -0.85822017 1.79058017 -3.04767000
C  -2.22085017 -0.33054983 -2.86170000
C  -2.83112017 -1.95198983 -1.18582000
C  -2.31780017 -2.79908983 -0.15561000
C  -2.43096017 -2.38825983 1.27184000
C  -3.05283017 -1.14705983 1.61109000
C  -2.45819017 -0.27993983 2.66641000
C  -2.62576017 1.13898017 2.24477000
C  -1.59421017 2.09085017 2.51357000
C  -1.21706017 3.09292017 1.47779000
C  0.30683983 3.48954017 -0.97986000
C  1.00499983 3.47969017 0.33609000
C  0.25885983 3.28550017 1.53942000
C  0.79389983 2.40243017 2.61326000
C  -0.35136017 1.66409017 3.21534000
C  -0.19060017 0.30286017 3.61984000
C  -1.26589017 -0.68932983 3.33964000
C  -0.61770017 -1.98316983 2.98605000
C  -1.18815017 -2.81504983 1.97364000
C  -2.05328017 -1.74948983 -2.44008000
C  1.88683983 -3.10234983 -0.21537000
C  1.21706983 -3.09291983 -1.47779000
C  1.59420983 -2.09084983 -2.51357000
C  2.62575983 -1.13897983 -2.24477000
C  3.32397983 -1.14883983 -0.92888000
C  2.84896983 -1.69936983 1.49226000
C  1.70371983 -2.43770983 2.09435000
C  1.10905983 -3.30477983 1.03897000
C  -0.30684017 -3.48953983 0.97986000
C  -1.00500017 -3.47968983 -0.33609000
C  -0.25886017 -3.28549983 -1.53942000
C  0.35135983 -1.66408983 -3.21534000
C  0.19059983 -0.30285983 -3.61984000
C  1.26588983 0.68933017 -3.33963000
C  2.45818983 0.27994017 -2.66641000
C  3.05282983 1.14706017 -1.61109000
C  3.58791983 0.26405017 -0.53723000
C  3.47933983 0.65813017 0.83219000
C  3.10215983 -0.34395983 1.86797000
C  0.85821983 -1.79057983 3.04767000
C  1.12219983 -0.37773983 3.43932000
C  2.22084983 0.33055017 2.86170000
C  2.05327983 1.74949017 2.44008000
C  2.83111983 1.95199017 1.18582000
C  2.31779983 2.79909017 0.15561000
C  2.43095983 2.38826017 -1.27185000
C  1.18815983 2.81504017 -1.97363000
C  0.61769983 1.98317017 -2.98605000
C  -0.79390017 -2.40242983 -2.61326000
C  -1.12220017 0.37774017 -3.43932000
C  2.96218983 -2.11016983 0.06479000
60
MD Step 1 Units = [Angstroms]
C  -2.96187618 2.10964499 -0.06453521
C  -2.84864511 1.69880349 -1.49214983
C  -3.10168544 0.34424875 -1.86762271
C  -3.47889335 -0.65794279 -0.83173796
C  -3.58740496 -0.26411101 0.53681767
C  -3.32343816 1.14892162 0.92850737
C  -1.88641761 3.10192565 0.21564312
C  -1.10855910 3.30437610 -1.03881393
C  -1.70327869 2.43721794 -2.09430083
C  -0.85831307 1.79049713 -3.04701899
C  -2.22027612 -0.33032976 -2.86145355
C  -2.83060763 -1.95193325 -1.18540336
C  -2.31761178 -2.79849922 -0.15584399
C  -2.43078334 -2.38762797 1.27175124
C  -3.05226085 -1.14721105 1.61078660
C  -2.45756049 -0.28000326 2.66621395
C  -2.62514748 1.13906096 2.24453150
C  -1.59424823 2.09032990 2.51316143
C  -1.21706047 3.09250149 1.47727634
C  0.30644756 3.48901955 -0.97974128
C  1.00467830 3.47916854 0.33634203
C  0.25900939 3.28510108 1.53891230
C  0.79410321 2.40194164 2.61286149
C  -0.35127253 1.66352694 3.21500246
C  -0.19061410 0.30315618 3.61924688
C  -1.26601333 -0.68913470 3.33901899
C  -0.61775714 -1.98310592 2.98539311
C  -1.18784717 -2.81446048 1.97362166
C  -2.05268950 -1.74941343 -2.43979114
C  1.88641737 -3.10192531 -0.21565281
C  1.21706988 -3.09250118 -1.47727650
C  1.59424794 -2.09032954 -2.51316145
C  2.62514715 -1.13906063 -2.24453150
C  3.32343783 -1.14892128 -0.92850737
C  2.84864474 -1.69880319 1.49214981
C  1.70327835 -2.43721763 2.09430079
C  1.10855879 -3.30437576 1.03881386
C  -0.30644782 -3.48901925 0.97974131
C  -1.00467862 -3.47916821 -0.33634206
C  -0.25900966 -3.28510074 -1.53891229
C  0.35127219 -1.66352660 -3.21500246
C  0.19061377 -0.30315584 -3.61924685
C  1.26601292 0.68913504 -3.33900911
C  2.45756022 0.28000358 -2.66621389
C  3.05226056 1.14721132 -1.61078664
C  3.58740463 0.26411135 -0.53681765
C  3.47889299 0.65794310 0.83173797
C  3.10167524 -0.34424841 1.86762266
C  0.85831274 -1.79049679 3.04701900
C  1.12231866 -0.37751325 3.43870924
C  2.22027574 0.33033011 2.86145358
C  2.05268915 1.74941378 2.43979114
C  2.83060729 1.95193361 1.18540333
C  2.31761147 2.79849953 0.15584394
C  2.43078313 2.38762831 -1.27176095
C  1.18785654 2.81445092 -1.97361190
C  0.61775686 1.98310626 -2.98539303
C  -0.79410352 -2.40194132 -2.61286148
C  -1.12231900 0.37751358 -3.43870924
C  2.96187585 -2.10964466 0.06453518
60
MD Step 2 Units = [Angstroms]
C  -2.96092704 2.10809095 -0.06379252
C  -2.84766509 1.69713342 -1.49181146
C  -3.10023751 0.34508500 -1.86658950
C  -3.47755134 -0.65739039 -0.83041193
C  -3.58586255 -0.26428602 0.53561071
C  -3.32182081 1.14914526 0.92741140
C  -1.88516499 3.10065304 0.21646500
C  -1.10708703 3.30316063 -1.03834726
C  -1.70197312 2.43575596 -2.09413300
C  -0.85857350 1.79023429 -3.04508748
C  -2.21857848 -0.32968506 -2.86070227
C  -2.82908188 -1.95174551 -1.18417622
C  -2.31703594 -2.79674651 -0.15652348
C  -2.43023986 -2.38576003 1.27147782
C  -3.05056719 -1.14763785 1.60988417
C  -2.45569806 -0.28018467 2.66561172
C  -2.62333256 1.13928280 2.24381063
C  -1.59434028 2.08879035 2.51194217
C  -1.21704704 3.09124596 1.47576325
C  0.30530169 3.48746254 -0.97938406
C  1.00373024 3.47760872 0.33707192
C  0.25944182 3.28390034 1.53741585
C  0.79468605 2.40049088 2.61167035
C  -0.35101322 1.66186734 3.21398176
C  -0.19065245 0.30401454 3.61747721
C  -1.26635707 -0.68855841 3.33717142
C  -0.61791575 -1.98289649 2.98344524
C  -1.18695090 -2.81271123 1.97354503
C  -2.05094542 -1.74917037 -2.43892134
C  1.88516502 -3.10065265 -0.21647377
C  1.21705570 -3.09124572 -1.47576388
C  1.59434011 -2.08878993 -2.51194227
C  2.62333224 -1.13928249 -2.24381064
C  3.32182050 -1.14914490 -0.92741139
C  2.84766459 -1.69713324 1.49181140
C  1.70197278 -2.43575572 2.09413284
C  1.10708681 -3.30316029 1.03834699
C  -0.30530173 -3.48746232 0.97938419
C  -1.00373050 -3.47760837 -0.33707205
C  -0.25944191 -3.28389998 -1.53741581
C  0.35101286 -1.66186702 -3.21398174
C  0.19065213 -0.30401421 -3.61747710
C  1.26635644 0.68855875 -3.33716191
C  2.45569798 0.28018496 -2.66561148
C  3.05056700 1.14763797 -1.60988435
C  3.58586223 0.26428636 -0.53561064
C  3.47755090 0.65739064 0.83041194
C  3.10022769 -0.34508463 1.86658928
C  0.85857316 -1.79023390 3.04508753
C  1.12265144 -0.37684903 3.43689036
C  2.21857794 0.32968546 2.86070238
C  2.05094505 1.74917077 2.43892135
C  2.82908152 1.95174593 1.18417611
C  2.31703571 2.79674677 0.15652331
C  2.43024001 2.38576036 -1.27148671
C  1.18695940 2.81270201 -1.97353595
C  0.61791561 1.98289682 -2.98344493
C  -0.79468629 -2.40049060 -2.61167030
C  -1.12265181 0.37684935 -3.43689034
C  2.96092671 -2.10809062 0.06379244
60
MD Step 3 Units = [Angstroms]
C  -2.95932206 2.10557147 -0.06262578
C  -2.84601625 1.69444834 -1.49122206
C  -3.09784522 0.34638228 -1.86489607
C  -3.47531013 -0.65649845 -0.82830045
C  -3.58330291 -0.26454986 0.53369748
C  -3.31915411 1.14945041 0.92565668
C  -1.88312688 3.09853556 0.21774481
C  -1.10473569 3.30112473 -1.03757465
C  -1.69985921 2.43336783 -2.09378707
C  -0.85894785 1.78975153 -3.04193930
C  -2.21582955 -0.32866142 -2.85941154
C  -2.82657823 -1.95137396 -1.18220570
C  -2.31604168 -2.79388842 -0.15758246
C  -2.42929187 -2.38273763 1.27099898
C  -3.04779166 -1.14826154 1.60840585
C  -2.45268151 -0.28045801 2.66456232
C  -2.62038381 1.13958553 2.24259199
C  -1.59442154 2.08629439 2.50993157
C  -1.21697789 3.08915559 1.47333299
C  0.30349331 3.48488393 -0.97878536
C  1.00220438 3.47502609 0.33820274
C  0.26010943 3.28188825 1.53500919
C  0.79556830 2.39812180 2.60969987
C  -0.35059282 1.65920014 3.21225466
C  -0.19070505 0.30534810 3.61456002
C  -1.26684589 -0.68762782 3.33414331
C  -0.61813994 -1.98248981 2.98027385
C  -1.18549895 -2.80985786 1.97334684
C  -2.04813042 -1.74872026 -2.43746153
C  1.88312733 -3.09853511 -0.21775214
C  1.21698536 -3.08915547 -1.47333434
C  1.59442154 -2.08629387 -2.50993178
C  2.62038353 -1.13958527 -2.24259200
C  3.31915382 -1.14945003 -0.92565667
C  2.84601556 -1.69444832 1.49122193
C  1.69985888 -2.43336772 2.09378672
C  1.10473560 -3.30112436 1.03757407
C  -0.30349302 -3.48488385 0.97878564
C  -1.00220454 -3.47502573 -0.33820303
C  -0.26010924 -3.28188786 -1.53500911
C  0.35059243 -1.65919982 -3.21225463
C  0.19070473 -0.30534779 -3.61455976
C  1.26684491 0.68762816 -3.33413439
C  2.45268171 0.28045824 -2.66456179
C  3.04779164 1.14826141 -1.60840624
C  3.58330261 0.26455021 -0.53369731
C  3.47530957 0.65649860 0.82830045
C  3.09783601 -0.34638185 1.86489558
C  0.85894750 -1.78975109 3.04193940
C  1.12312869 -0.37579292 3.43390328
C  2.21582879 0.32866189 2.85941178
C  2.04813001 1.74872072 2.43746155
C  2.82657783 1.95137449 1.18220547
C  2.31604156 2.79388858 0.15758211
C  2.42929261 2.38273795 -1.27100656
C  1.18550607 2.80984919 -1.97333884
C  0.61814002 1.98249014 -2.98027318
C  -0.79556843 -2.39812157 -2.60969976
C  -1.12312910 0.37579323 -3.43390323
C  2.95932174 -2.10557116 0.06262559
60
MD Step 4 Units = [Angstroms]
C  -2.95702978 2.10218906 -0.06113694
C  -2.84367801 1.69089031 -1.49034594
C  -3.09454032 0.34800235 -1.86258446
C  -3.47216517 -0.65530851 -0.82554539
C  -3.57974390 -0.26486272 0.53121938
C  -3.31548135 1.14974076 0.92334692
C  -1.88037547 3.09558001 0.21935359
C  -1.10165220 3.29825569 -1.03650412
C  -1.69702694 2.43012455 -2.09316922
C  -0.85935091 1.78898577 -3.03767798
C  -2.21214608 -0.32733199 -2.85752759
C  -2.82315460 -1.95073557 -1.17959967
C  -2.31458073 -2.79001701 -0.15891559
C  -2.42788025 -2.37869242 1.27028227
C  -3.04400372 -1.14895703 1.60638947
C  -2.44863772 -0.28078179 2.66300170
C  -2.61641194 1.13987368 2.24085217
C  -1.59438933 2.08294353 2.50716188
C  -1.21678661 3.08623526 1.47011772
C  0.30116807 3.48130921 -0.97794097
C  1.00017912 3.47144710 0.33961178
C  0.26093617 3.27905107 1.53181861
C  0.79662250 2.39490583 2.60697270
C  -0.35002846 1.65566798 3.20978577
C  -0.19075578 0.30701780 3.61054360
C  -1.26735987 -0.68638623 3.33000995
C  -0.61837241 -1.98180435 2.97598830
C  -1.18355198 -2.80599095 1.97292711
C  -2.04437731 -1.74799948 -2.43539853
C  1.88037645 -3.09557949 -0.21935907
C  1.21679253 -3.08623530 -1.47011997
C  1.59438957 -2.08294288 -2.50716226
C  2.61641170 -1.13987346 -2.24085219
C  3.31548109 -1.14974035 -0.92334690
C  2.84367707 -1.69089049 1.49034572
C  1.69702659 -2.43012460 2.09316864
C  1.10165229 -3.29825531 1.03650314
C  -0.30116738 -3.48130931 0.97794143
C  -1.00017914 -3.47144672 -0.33961226
C  -0.26093563 -3.27905065 -1.53181847
C  0.35002802 -1.65566767 -3.20978571
C  0.19075546 -0.30701751 -3.61054316
C  1.26735846 0.68638656 -3.33000182
C  2.44863827 0.28078196 -2.66300082
C  3.04400393 1.14895660 -1.60639012
C  3.57974364 0.26486307 -0.53121911
C  3.47216445 0.65530853 0.82554540
C  3.09453193 -0.34800186 1.86258363
C  0.85935056 -1.78898527 3.03767814
C  1.12364000 -0.37441818 3.42981360
C  2.21214502 0.32733257 2.85752798
C  2.04437686 1.74800003 2.43539858
C  2.82315416 1.95073624 1.17959927
C  2.31458078 2.79001707 0.15891499
C  2.42788173 2.37869273 -1.27028811
C  1.18355732 2.80598305 -1.97292053
C  0.61837276 1.98180466 -2.97598718
C  -0.79662249 -2.39490566 -2.60697251
C  -1.12364048 0.37441847 -3.42981350
C  2.95702948 -2.10218875 0.06113663
60
MD Step 5 Units = [Angstroms]
C  -2.95401237 2.09808001 -0.05945941
C  -2.84062661 1.68664693 -1.48913808
C  -3.09036777 0.34976488 -1.85971174
C  -3.46811440 -0.65387563 -0.82233317
C  -3.57521286 -0.26517286 0.52836191
C  -3.31086283 1.14989164 0.92061867
C  -1.87700725 3.09179874 0.22112299
C  -1.09803010 3.29454059 -1.03514729
C  -1.69359582 2.42612160 -2.09215912
C  -0.85967228 1.78785651 -3.03244229
C  -2.20768310 -0.32579277 -2.85498330
C  -2.81888985 -1.94972398 -1.17650044
C  -2.31259259 -2.78525578 -0.16038528
C  -2.42593038 -2.37379916 1.26928663
C  -3.03929757 -1.14956207 1.60388626
C  -2.44373529 -0.28110213 2.66084910
C  -2.61156455 1.14002369 2.23856307
C  -1.59411125 2.07887279 2.50367807
C  -1.21638774 3.08249477 1.46629186
C  0.29851675 3.47677559 -0.97684646
C  0.99775804 3.46691019 0.34113898
C  0.26182293 3.27537449 1.52801090
C  0.79768288 2.39093902 2.60352134
C  -0.34934290 1.65145921 3.20653236
C  -0.19078378 0.30884221 3.60549514
C  -1.26774363 -0.68489098 3.32487347
C  -0.61853896 -1.98073570 2.97073489
C  -1.18119064 -2.80123208 1.97215731
C  -2.03986202 -1.74692681 -2.43271784
C  1.87700881 -3.09179815 -0.22112635
C  1.21639185 -3.08249499 -1.46629510
C  1.59411175 -2.07887201 -2.50367866
C  2.61156439 -1.14002352 -2.23856308
C  3.31086261 -1.14989120 -0.92061866
C  2.84062538 -1.68664734 1.48913776
C  1.69359544 -2.42612182 2.09215829
C  1.09803041 -3.29454019 1.03514587
C  -0.29851560 -3.47677591 0.97684712
C  -0.99775789 -3.46690979 -0.34113967
C  -0.26182197 -3.27537402 -1.52801072
C  0.34934242 -1.65145890 -3.20653228
C  0.19078345 -0.30884193 -3.60549447
C  1.26774176 0.68489128 -3.32486629
C  2.44373623 0.28110222 -2.66084784
C  3.03929808 1.14956129 -1.60388718
C  3.57521263 0.26517321 -0.52836151
C  3.46811348 0.65387553 0.82233318
C  3.09036038 -0.34976433 1.85971051
C  0.85967193 -1.78785594 3.03244252
C  1.12404232 -0.37282099 3.42471090
C  2.20768170 0.32579347 2.85498386
C  2.03986152 1.74692747 2.43271790
C  2.81888936 1.94972479 1.17649987
C  2.31259284 2.78525571 0.16038441
C  2.42593271 2.37379945 -1.26929044
C  1.18119390 2.80122512 -1.97215239
C  0.61853959 1.98073595 -2.97073326
C  -0.79768273 -2.39093891 -2.60352106
C  -1.12404289 0.37282127 -3.42471074
C  2.95401211 -2.09807972 0.05945895
60
MD Step 6 Units = [Angstroms]
C  -2.95023155 2.09340680 -0.05774830
C  -2.83683990 1.68193948 -1.48754906
C  -3.08538576 0.35146098 -1.85634779
C  -3.46316206 -0.65226507 -0.81888202
C  -3.56974842 -0.26542066 0.52534163
C  -3.30537499 1.14976041 0.91763245
C  -1.87313793 3.08721203 0.22285777
C  -1.09409646 3.28997076 -1.03351967
C  -1.68970800 2.42147464 -2.09062094
C  -0.85978528 1.78627363 -3.02639933
C  -2.20262505 -0.32415594 -2.85170616
C  -2.81388105 -1.94821928 -1.17307568
C  -2.31001138 -2.77975358 -0.16183198
C  -2.42336019 -2.36826551 1.26796683
C  -3.03378855 -1.14989030 1.60095885
C  -2.43817489 -0.28135692 2.65801577
C  -2.60601822 1.13989416 2.23569632
C  -1.59343645 2.07424310 2.49953720
C  -1.21568429 3.07795141 1.46206096
C  0.29576160 3.47133297 -0.97549856
C  0.99506346 3.46146670 0.34259898
C  0.26265501 3.27084816 1.52378288
C  0.79855837 2.38633757 2.59938856
C  -0.34856327 1.64679587 3.20245098
C  -0.19076515 0.31061104 3.59949963
C  -1.26781906 -0.68321003 3.31885893
C  -0.61855456 -1.97916632 2.96468933
C  -1.17851093 -2.79572788 1.97089188
C  -2.03479290 -1.74541124 -2.42940724
C  1.87314008 -3.08721139 -0.22285890
C  1.21568647 -3.07795185 -1.46206516
C  1.59343720 -2.07424221 -2.49953803
C  2.60601818 -1.13989403 -2.23569631
C  3.30537481 -1.14975993 -0.91763244
C  2.83683838 -1.68194010 1.48754862
C  1.68970757 -2.42147504 2.09061987
C  1.09409703 -3.28997034 1.03351778
C  -0.29576000 -3.47133354 0.97549941
C  -0.99506310 -3.46146628 -0.34259986
C  -0.26265362 -3.27084765 -1.52378268
C  0.34856275 -1.64679557 -3.20245087
C  0.19076479 -0.31061077 -3.59949870
C  1.26781673 0.68321027 -3.31885283
C  2.43817619 0.28135692 -2.65801415
C  3.03378941 1.14988918 -1.60096002
C  3.56974824 0.26542098 -0.52534111
C  3.46316090 0.65226485 0.81888203
C  3.08537949 -0.35146038 1.85634615
C  0.85978495 -1.78627301 3.02639962
C  1.12417153 -0.37111387 3.41870586
C  2.20262330 0.32415678 2.85170687
C  2.03479238 1.74541200 2.42940731
C  2.81388051 1.94822023 1.17307495
C  2.31001185 2.77975340 0.16183082
C  2.42336341 2.36826576 -1.26796841
C  1.17851195 2.79572204 -1.97088873
C  0.61855543 1.97916648 -2.96468718
C  -0.79855809 -2.38633751 -2.59938818
C  -1.12417222 0.37111412 -3.41870562
C  2.95023134 -2.09340652 0.05774770
60
MD Step 7 Units = [Angstroms]
C  -2.94565576 2.08834768 -0.05616796
C  -2.83230304 1.67700721 -1.48553108
C  -3.07966520 0.35287066 -1.85257219
C  -3.45732313 -0.65054787 -0.81542532
C  -3.56340227 -0.26554383 0.52238933
C  -3.29910872 1.14919959 0.91456087
C  -1.86889569 3.08185071 0.22435199
C  -1.09009486 3.28454695 -1.03164078
C  -1.68551904 2.41631339 -2.08841730
C  -0.85955847 1.78414715 -3.01973511
C  -2.19717377 -0.32254119 -2.84762808
C  -2.80823945 -1.94610053 -1.16950640
C  -2.30677438 -2.77367637 -0.16308733
C  -2.42009019 -2.36231835 1.26627880
C  -3.02760786 -1.14974801 1.59767834
C  -2.43217621 -0.28148128 2.65441585
C  -2.59996771 1.13933890 2.23222867
C  -1.59221013 2.06923105 2.49480721
C  -1.21457730 3.07263285 1.45764694
C  0.29313874 3.46504470 -0.97389679
C  0.99222783 3.45518143 0.34379669
C  0.26331184 3.26547106 1.51934743
C  0.79904919 2.38123169 2.59462750
C  -0.34771934 1.64191793 3.19750530
C  -0.19067522 0.31210272 3.59265793
C  -1.26740149 -0.68141738 3.31210876
C  -0.61833107 -1.97697786 2.95804655
C  -1.17561799 -2.78964202 1.96898273
C  -2.02939659 -1.74336171 -2.42546116
C  1.86889834 -3.08185004 -0.22435100
C  1.21457757 -3.07263351 -1.45765194
C  1.59221111 -2.06923006 -2.49480832
C  2.59996783 -1.13933880 -2.23222863
C  3.29910861 -1.14919909 -0.91456087
C  2.83230123 -1.67700800 1.48553052
C  1.68551853 -2.41631396 2.08841601
C  1.09009571 -3.28454653 1.03163846
C  -0.29313676 -3.46504553 0.97389776
C  -0.99222723 -3.45518100 -0.34379772
C  -0.26331002 -3.26547051 -1.51934724
C  0.34771879 -1.64191763 -3.19750518
C  0.19067479 -0.31210244 -3.59265672
C  1.26739881 0.68141751 -3.31210381
C  2.43217781 0.28148119 -2.65441392
C  3.02760913 1.14974659 -1.59767971
C  3.56340216 0.26554411 -0.52238870
C  3.45732171 0.65054755 0.81542534
C  3.07966014 -0.35287003 1.85257015
C  0.85955816 -1.78414651 3.01973543
C  1.12385743 -0.36941697 3.41192594
C  2.19717168 0.32254217 2.84762890
C  2.02939607 1.74336258 2.42546124
C  2.80823887 1.94610158 1.16950552
C  2.30677510 2.77367609 0.16308589
C  2.42009427 2.36231855 -1.26627812
C  1.17561680 2.78963748 -1.96898136
C  0.61833210 1.97697784 -2.95804394
C  -0.79904881 -2.38123166 -2.59462702
C  -1.12385825 0.36941720 -3.41192561
C  2.94565561 -2.08834741 0.05616721
60
MD Step 8 Units = [Angstroms]
C  -2.94026822 2.08308398 -0.05487688
C  -2.82701483 1.67208826 -1.48304496
C  -3.07328861 0.35378370 -1.84847016
C  -3.45062804 -0.64879542 -0.81219160
C  -3.55624069 -0.26548365 0.51972964
C  -3.29216684 1.14807250 0.91157441
C  -1.86441255 3.07575870 0.22540838
C  -1.08626490 3.27828513 -1.02953422
C  -1.68118654 2.41077395 -2.08542555
C  -0.85886925 1.78139868 -3.01264271
C  -2.19153376 -0.32106524 -2.84269666
C  -2.80208517 -1.94326027 -1.16597230
C  -2.30283187 -2.76719678 -0.16398994
C  -2.41605502 -2.35618710 1.26418601
C  -3.02089588 -1.14895397 1.59412063
C  -2.42596209 -0.28141405 2.64997895
C  -2.59361259 1.13822240 2.22814803
C  -1.59029062 2.06401625 2.48956510
C  -1.21297709 3.06657990 1.45327028
C  0.29087690 3.45798778 -0.97204516
C  0.98938329 3.44813278 0.34454581
C  0.26367854 3.25925730 1.51491659
C  0.79896666 2.37575778 2.58930131
C  -0.34684139 1.63706404 3.19167519
C  -0.19049106 0.31310532 3.58508379
C  -1.26631898 -0.67958742 3.30477539
C  -0.61778652 -1.97406545 2.95100796
C  -1.17261854 -2.78314505 1.96629638
C  -2.02390071 -1.74069863 -2.42088547
C  1.86441555 -3.07575806 -0.22540555
C  1.21297561 -3.06658080 -1.45327579
C  1.59029177 -2.06401521 -2.48956650
C  2.59361290 -1.13822232 -2.22814795
C  3.29216679 -1.14807199 -0.91157442
C  2.82701275 -1.67208916 1.48304430
C  1.68118592 -2.41077466 2.08542412
C  1.08626604 -3.27828471 1.02953153
C  -0.29087466 -3.45798888 0.97204620
C  -0.98938241 -3.44813236 -0.34454694
C  -0.26367633 -3.25925671 -1.51491644
C  0.34684084 -1.63706372 -3.19167506
C  0.19049054 -0.31310504 -3.58508229
C  1.26631608 0.67958739 -3.30477162
C  2.42596385 0.28141388 -2.64997682
C  3.02089758 1.14895234 -1.59412211
C  3.55624067 0.26548386 -0.51972894
C  3.45062635 0.64879504 0.81219163
C  3.07328480 -0.35378308 1.84846777
C  0.85886898 -1.78139805 3.01264303
C  1.12294128 -0.36784772 3.40450967
C  2.19153139 0.32106636 2.84269754
C  2.02390021 1.74069959 2.42088554
C  2.80208457 1.94326137 1.16597133
C  2.30283285 2.76719643 0.16398826
C  2.41605986 2.35618721 -1.26418313
C  1.17261528 2.78314193 -1.96629668
C  0.61778760 1.97406518 -2.95100497
C  -0.79896622 -2.37575775 -2.58930075
C  -1.12294226 0.36784793 -3.40450923
C  2.94026817 -2.08308372 0.05487601
60
MD Step 9 Units = [Angstroms]
C  -2.93407540 2.07778575 -0.05401120
C  -2.82099424 1.66739845 -1.48006767
C  -3.06634842 0.35402255 -1.84412780
C  -3.44312728 -0.64707349 -0.80938234
C  -3.54834561 -0.26519171 0.51755870
C  -3.28466068 1.14627019 0.90882556
C  -1.85981483 3.06899541 0.22585957
C  -1.08281951 3.27122213 -1.02722746
C  -1.67685741 2.40498998 -2.08155543
C  -0.85761867 1.77797365 -3.00530885
C  -2.18589573 -0.31983036 -2.83688713
C  -2.79554095 -1.93962022 -1.16263559
C  -2.29815754 -2.76048226 -0.16440273
C  -2.41121579 -2.35008488 1.26166605
C  -3.01379420 -1.14736112 1.59036198
C  -2.41974052 -0.28110482 2.64466352
C  -2.58714213 1.13643664 2.22345982
C  -1.58756781 2.05876716 2.48389442
C  -1.21081544 3.05984925 1.44913010
C  0.28917410 3.45025265 -0.96995401
C  0.98665001 3.44041230 0.34468922
C  0.26365858 3.25224201 1.51068271
C  0.79815485 2.37004950 2.58348243
C  -0.34595782 1.63245015 3.18496595
C  -0.19019443 0.31343955 3.57690004
C  -1.26443321 -0.67778868 3.29701278
C  -0.61685506 -1.97035326 2.94376694
C  -1.16961228 -2.77640273 1.96273244
C  -2.01851451 -1.73736611 -2.41570226
C  1.85981797 -3.06899483 -0.22585537
C  1.21081249 -3.05985036 -1.44913574
C  1.58756907 -2.05876614 -2.48389611
C  2.58714269 -1.13643658 -2.22345968
C  3.28466072 -1.14626967 -0.90882560
C  2.82099195 -1.66739937 1.48006692
C  1.67685663 -2.40499079 2.08155393
C  1.08282092 -3.27122173 1.02722451
C  -0.28917172 -3.45025402 0.96995504
C  -0.98664884 -3.44041190 -0.34469036
C  -0.26365606 -3.25224140 -1.51068267
C  0.34595729 -1.63244983 -3.18496582
C  0.19019376 -0.31343924 -3.57689825
C  1.26443029 0.67778841 -3.29701017
C  2.41974230 0.28110459 -2.64466132
C  3.01379635 1.14735939 -1.59036348
C  3.54834568 0.26519183 -0.51755797
C  3.44312531 0.64707310 0.80938238
C  3.06634584 -0.35402196 1.84412513
C  0.85761845 -1.77797309 3.00530914
C  1.12129514 -0.36650929 3.39659977
C  2.18589313 0.31983160 2.83688801
C  2.01851409 1.73736714 2.41570232
C  2.79554035 1.93962133 1.16263460
C  2.29815879 2.76048189 0.16440088
C  2.41122123 2.35008487 -1.26166120
C  1.16960727 2.77640115 -1.96273417
C  0.61685604 1.97035264 -2.94376372
C  -0.79815442 -2.37004942 -2.58348180
C  -1.12129629 0.36650948 -3.39659920
C  2.93407547 -2.07778550 0.05401024
60
MD Step 10 Units = [Angstroms]
C  -2.92711505 2.07259737 -0.05366834
C  -2.81428657 1.66311006 -1.47659953
C  -3.05894491 0.35346491 -1.83962717
C  -3.43489557 -0.64543613 -0.80714995
C  -3.53981530 -0.26463663 0.51602184
C  -3.27670650 1.14372813 0.90643305
C  -1.85521331 3.06163769 0.22558909
C  -1.07992230 3.26342107 -1.02475164
C  -1.67265502 2.39908366 -2.07676627
C  -0.85574605 1.77385328 -2.99790022
C  -2.18041995 -0.31891283 -2.83021388
C  -2.78872560 -1.93514667 -1.15962477
C  -2.29275863 -2.75368304 -0.16423007
C  -2.40557203 -2.34418971 1.25871722
C  -3.00643751 -1.14487780 1.58647460
C  -2.41368672 -0.28052091 2.63846985
C  -2.58072013 1.13391762 2.21819290
C  -1.58398136 2.05362682 2.47788258
C  -1.20805746 3.05251572 1.44538439
C  0.28817441 3.44194255 -0.96764163
C  0.98412459 3.43212391 0.34411910
C  0.26318629 3.24448689 1.50679965
C  0.79651189 2.36422862 2.57725149
C  -0.34509273 1.62824822 3.17741732
C  -0.18977447 0.31298143 3.56823440
C  -1.26166007 -0.67607751 3.28896756
C  -0.61549686 -1.96580955 2.93649422
C  -1.16668331 -2.76956431 1.95824165
C  -2.01340956 -1.73334402 -2.40995448
C  1.85521636 -3.06163724 -0.22558409
C  1.20805344 -3.05251703 -1.44538968
C  1.58398266 -2.05362588 -2.47788456
C  2.58072097 -1.13391754 -2.21819270
C  3.27670663 -1.14372763 -0.90643312
C  2.81428414 -1.66311088 1.47659871
C  1.67265407 -2.39908451 2.07676480
C  1.07992396 -3.26342072 1.02474856
C  -0.28817208 -3.44194415 0.96764255
C  -0.98412310 -3.43212353 -0.34412017
C  -0.26318356 -3.24448627 -1.50679976
C  0.34509224 -1.62824789 -3.17741720
C  0.18977362 -0.31298109 -3.56823233
C  1.26165735 0.67607695 -3.28896606
C  2.41368832 0.28052065 -2.63846775
C  3.00644010 1.14487612 -1.58647599
C  3.53981550 0.26463662 -0.51602113
C  3.43489335 0.64543579 0.80715000
C  3.05894352 -0.35346441 1.83962432
C  0.85574589 -1.77385284 2.99790043
C  1.11884069 -0.36547918 3.38833602
C  2.18041721 0.31891416 2.83021467
C  2.01340923 1.73334510 2.40995452
C  2.78872503 1.93514770 1.15962384
C  2.29276014 2.75368271 0.16422813
C  2.40557785 2.34418956 -1.25871073
C  1.16667699 2.76956433 -1.95824451
C  0.61549758 1.96580849 -2.93649094
C  -0.79651153 -2.36422845 -2.57725082
C  -1.11884201 0.36547935 -3.38833532
C  2.92711524 -2.07259714 0.05366734
60
MD Step 11 Units = [Angstroms]
C  -2.91946280 2.06762502 -0.05389296
C  -2.80696852 1.65933354 -1.47267029
C  -3.05118427 0.35206315 -1.83504193
C  -3.42603527 -0.64392048 -0.80557881
C  -3.53076474 -0.26380974 0.51519451
C  -3.26842202 1.14044039 0.90446824
C  -1.85069481 3.05378135 0.22454934
C  -1.07766816 3.25497566 -1.02214126
C  -1.66866817 2.39315779 -2.07108159
C  -0.85324137 1.76906468 -2.99055154
C  -2.17522187 -0.31835318 -2.82274009
C  -2.78174824 -1.92986339 -1.15702067
C  -2.28668433 -2.74692157 -0.16343240
C  -2.39917177 -2.33862821 1.25536394
C  -2.99894636 -1.14148594 1.58252264
C  -2.40792746 -0.27965332 2.63145098
C  -2.57447166 1.13065937 2.21240463
C  -1.57953606 2.04870044 2.47161842
C  -1.20471175 3.04467403 1.44213284
C  0.28794818 3.43317268 -0.96513562
C  0.98186999 3.42338293 0.34279410
C  0.26223757 3.23608460 1.50336654
C  0.79400820 2.35839708 2.57069626
C  -0.34426384 1.62456781 3.16911081
C  -0.18923012 0.31168172 3.55921562
C  -1.25798723 -0.67449269 3.28077128
C  -0.61370644 -1.96045954 2.92932510
C  -1.16389271 -2.76275219 1.95284128
C  -2.00870297 -1.72865804 -2.40370959
C  1.85069750 -3.05378106 -0.22454419
C  1.20470710 -3.04467548 -1.44213731
C  1.57953732 -2.04869965 -2.47162065
C  2.57447279 -1.13065928 -2.21240436
C  3.26842226 -1.14043994 -0.90446835
C  2.80696603 -1.65933417 1.47266942
C  1.66866702 -2.39315862 2.07108024
C  1.07767000 -3.25497537 1.02213819
C  -0.28794606 -3.43317448 0.96513635
C  -0.98186819 -3.42338259 -0.34279501
C  -0.26223477 -3.23608398 -1.50336683
C  0.34426342 -1.62456745 -3.16911072
C  0.18922906 -0.31168136 -3.55921329
C  1.25798494 0.67449179 -3.28077081
C  2.40792871 0.27965305 -2.63144913
C  2.99894937 1.14148448 -1.58252379
C  3.53076507 0.26380958 -0.51519386
C  3.42603281 0.64392025 0.80557885
C  3.05118397 -0.35206278 1.83503904
C  0.85324126 -1.76906442 2.99055164
C  1.11556534 -0.36479940 3.37984888
C  2.17521909 0.31835456 2.82274070
C  2.00870277 1.72865914 2.40370961
C  2.78174773 1.92986428 1.15701989
C  2.28668611 2.74692134 0.16343048
C  2.39917767 2.33862789 -1.25535625
C  1.16388561 2.76275382 -1.95284492
C  0.61370675 1.96045796 -2.92932195
C  -0.79400797 -2.35839677 -2.57069557
C  -1.11556684 0.36479955 -3.37984804
C  2.91946314 -2.06762481 0.05389195
60
MD Step 12 Units = [Angstroms]
C  -2.91123638 2.06292827 -0.05466769
C  -2.79915131 1.65610532 -1.46834308
C  -3.04317705 0.34985699 -1.83043437
C  -3.41667826 -0.64254324 -0.80467269
C  -3.52132552 -0.26272884 0.51506960
C  -3.25992398 1.13646896 0.90294613
C  -1.84631636 3.04554185 0.22277345
C  -1.07607028 3.24601277 -1.01943387
C  -1.66494357 2.38729041 -2.06459856
C  -0.85015345 1.76368737 -2.98335748
C  -2.17036251 -0.31814960 -2.81458388
C  -2.77470424 -1.92386015 -1.15484712
C  -2.28003127 -2.74028536 -0.16203594
C  -2.39211795 -2.33346459 1.25166029
C  -2.99142218 -1.13725298 1.57855946
C  -2.40253063 -0.27852059 2.62371971
C  -2.56847408 1.12672322 2.20618391
C  -1.57431194 2.04404707 2.46519029
C  -1.20083694 3.03643967 1.43940551
C  0.28847881 3.42406946 -0.96247368
C  0.97990883 3.41431522 0.34075073
C  0.26083695 3.22716148 1.50041691
C  0.79069845 2.35263151 2.56391071
C  -0.34348107 1.62144373 3.16017437
C  -0.18857167 0.30957880 3.54997070
C  -1.25348559 -0.67305173 3.27253497
C  -0.61151823 -1.95439364 2.92235078
C  -1.16127348 -2.75605490 1.94662510
C  -2.00444619 -1.72338632 -2.39706189
C  1.84631845 -3.04554178 -0.22276880
C  1.20083216 -3.03644121 -1.43940871
C  1.57431309 -2.04404651 -2.46519272
C  2.56847550 -1.12672313 -2.20618359
C  3.25992434 -1.13646858 -0.90294628
C  2.79914884 -1.65610564 1.46834218
C  1.66494221 -2.38729115 2.06459742
C  1.07607222 -3.24601258 1.01943098
C  -0.28847706 -3.42407140 0.96247415
C  -0.97990673 -3.41431495 -0.34075141
C  -0.26083423 -3.22716089 -1.50041742
C  0.34348073 -1.62144337 -3.16017431
C  0.18857037 -0.30957840 -3.54996816
C  1.25348393 0.67305045 -3.27253543
C  2.40253138 0.27852034 -2.62371826
C  2.99142555 1.13725189 -1.57856026
C  3.52132601 0.26272851 -0.51506906
C  3.41667561 0.64254316 0.80467272
C  3.04317772 -0.34985678 1.83043159
C  0.85015335 -1.76368734 2.98335743
C  1.11153285 -0.36446995 3.37125502
C  2.17035979 0.31815098 2.81458422
C  2.00444614 1.72338741 2.39706188
C  2.77470381 1.92386083 1.15484657
C  2.28003328 2.74028530 0.16203419
C  2.39212362 2.33346408 -1.25165191
C  1.16126619 2.75605808 -1.94662914
C  0.61151800 1.95439150 -2.92234792
C  -0.79069840 -2.35263103 -2.56391003
C  -1.11153451 0.36447010 -3.37125405
C  2.91123688 -2.06292809 0.05466673
60
MD Step 13 Units = [Angstroms]
C  -2.90259630 2.05851751 -0.05591066
C  -2.79098110 1.65338425 -1.46371517
C  -3.03503729 0.34697693 -1.82585426
C  -3.40698596 -0.64129964 -0.80435129
C  -3.51164530 -0.26143917 0.51555400
C  -3.25132695 1.13194603 0.90182273
C  -1.84210341 3.03705409 0.22037842