60
MD Step 0 Units = [Angstroms / fs]
C  0.00000000 0.00000000 0.00000000
C  0.00000000 0.00000000 0.00000000
C  0.00000000 0.00000000 0.00000000
C  0.00000000 0.00000000 0.00000000
C  0.00000000 0.00000000 0.00000000
C  0.00000000 0.00000000 0.00000000
C  0.00000000 0.00000000 0.00000000
C  0.00000000 0.00000000 0.00000000
C  0.00000000 0.00000000 0.00000000
C  0.00000000 0.00000000 0.00000000
C  0.00000000 0.00000000 0.00000000
C  0.00000000 0.00000000 0.00000000
C  0.00000000 0.00000000 0.00000000
C  0.00000000 0.00000000 0.00000000
C  0.00000000 0.00000000 0.00000000
C  0.00000000 0.00000000 0.00000000
C  0.00000000 0.00000000 0.00000000
C  0.00000000 0.00000000 0.00000000
C  0.00000000 0.00000000 0.00000000
C  0.00000000 0.00000000 0.00000000
C  0.00000000 0.00000000 0.00000000
C  0.00000000 0.00000000 0.00000000
C  0.00000000 0.00000000 0.00000000
C  0.00000000 0.00000000 0.00000000
C  0.00000000 0.00000000 0.00000000
C  0.00000000 0.00000000 0.00000000
C  0.00000000 0.00000000 0.00000000
C  0.00000000 0.00000000 0.00000000
C  0.00000000 0.00000000 0.00000000
C  0.00000000 0.00000000 0.00000000
C  0.00000000 0.00000000 0.00000000
C  0.00000000 0.00000000 0.00000000
C  0.00000000 0.00000000 0.00000000
C  0.00000000 0.00000000 0.00000000
C  0.00000000 0.00000000 0.00000000
C  0.00000000 0.00000000 0.00000000
C  0.00000000 0.00000000 0.00000000
C  0.00000000 0.00000000 0.00000000
C  0.00000000 0.00000000 0.00000000
C  0.00000000 0.00000000 0.00000000
C  0.00000000 0.00000000 0.00000000
C  0.00000000 0.00000000 0.00000000
C  0.00000000 0.00000000 0.00000000
C  0.00000000 0.00000000 0.00000000
C  0.00000000 0.00000000 0.00000000
C  0.00000000 0.00000000 0.00000000
C  0.00000000 0.00000000 0.00000000
C  0.00000000 0.00000000 0.00000000
C  0.00000000 0.00000000 0.00000000
C  0.00000000 0.00000000 0.00000000
C  0.00000000 0.00000000 0.00000000
C  0.00000000 0.00000000 0.00000000
C  0.00000000 0.00000000 0.00000000
C  0.00000000 0.00000000 0.00000000
C  0.00000000 0.00000000 0.00000000
C  0.00000000 0.00000000 0.00000000
C  0.00000000 0.00000000 0.00000000
C  0.00000000 0.00000000 0.00000000
C  0.00000000 0.00000000 0.00000000
C  0.00000000 0.00000000 0.00000000
60
MD Step 1 Units = [Angstroms / fs]
C  0.00063156 -0.00103961 0.00049874
C  0.00065254 -0.00111837 0.00022427
C  0.00096633 0.00056242 0.00069025
C  0.00089442 0.00036972 0.00088903
C  0.00102881 -0.00011809 -0.00080964
C  0.00107968 0.00015255 -0.00073430
C  0.00083759 -0.00084856 0.00055250
C  0.00098657 -0.00080977 0.00031137
C  0.00087353 -0.00097711 0.00010850
C  -0.00017667 -0.00017294 0.00129126
C  0.00113585 0.00043239 0.00049886
C  0.00101914 0.00012216 0.00082189
C  0.00038211 0.00117166 -0.00045674
C  0.00036016 0.00124990 -0.00018109
C  0.00113149 -0.00028901 -0.00060292
C  0.00124605 -0.00012242 -0.00039914
C  0.00121380 0.00015131 -0.00047969
C  -0.00006506 -0.00102991 -0.00081392
C  0.00000656 -0.00083711 -0.00101337
C  -0.00076907 -0.00103881 0.00023797
C  -0.00063480 -0.00104072 0.00049096
C  0.00029099 -0.00079991 -0.00100207
C  0.00039311 -0.00096964 -0.00079483
C  0.00017347 -0.00111141 -0.00067912
C  -0.00002614 0.00057718 -0.00118139
C  -0.00023345 0.00038571 -0.00123429
C  -0.00010779 0.00013667 -0.00130238
C  0.00059963 0.00116930 -0.00004749
C  0.00116737 0.00015973 0.00057933
C  -0.00083741 0.00084859 -0.00055189
C  -0.00000707 0.00083706 0.00101306
C  0.00006514 0.00102995 0.00081387
C  -0.00121380 -0.00015133 0.00047968
C  -0.00107967 -0.00015254 0.00073430
C  -0.00065262 0.00111830 -0.00022430
C  -0.00087353 0.00097705 -0.00010858
C  -0.00098651 0.00080977 -0.00031150
C  0.00076922 0.00103876 -0.00023791
C  0.00063483 0.00104073 -0.00049103
C  -0.00029087 0.00079993 0.00100209
C  -0.00017349 0.00111141 0.00067913
C  0.00002615 -0.00057719 0.00118145
C  0.00023330 -0.00038571 0.00123405
C  -0.00124593 0.00012240 0.00039926
C  -0.00113142 0.00028890 0.00060283
C  -0.00102880 0.00011810 0.00080968
C  -0.00089447 -0.00036976 -0.00088903
C  -0.00096607 -0.00056240 -0.00069036
C  0.00017667 0.00017297 -0.00129123
C  0.00022580 0.00044540 -0.00121482
C  -0.00113594 -0.00043236 -0.00049881
C  -0.00116739 -0.00015970 -0.00057933
C  -0.00101916 -0.00012212 -0.00082194
C  -0.00038206 -0.00117170 0.00045666
C  -0.00035991 -0.00124990 0.00018165
C  -0.00060021 -0.00116908 0.00004703
C  0.00010789 -0.00013667 0.00130253
C  -0.00039306 0.00096962 0.00079485
C  -0.00022582 -0.00044541 0.00121483
C  -0.00063156 0.00103961 -0.00049878
60
MD Step 2 Units = [Angstroms / fs]
C  0.00127706 -0.00203676 0.00095471
C  0.00131443 -0.00217757 0.00046388
C  0.00192011 0.00106676 0.00136332
C  0.00179161 0.00072217 0.00171876
C  0.00205103 -0.00021942 -0.00156010
C  0.00214203 0.00026440 -0.00142534
C  0.00164536 -0.00169505 0.00105084
C  0.00191170 -0.00162569 0.00061964
C  0.00170974 -0.00192505 0.00025688
C  -0.00031739 -0.00037280 0.00253985
C  0.00222328 0.00083417 0.00102101
C  0.00201470 0.00027965 0.00159883
C  0.00078505 0.00230540 -0.00086924
C  0.00074573 0.00244517 -0.00037613
C  0.00223460 -0.00052525 -0.00119037
C  0.00243949 -0.00022737 -0.00082582
C  0.00238183 0.00026229 -0.00096975
C  -0.00008665 -0.00201775 -0.00161493
C  0.00004129 -0.00167295 -0.00197167
C  -0.00147712 -0.00206781 0.00047796
C  -0.00123696 -0.00207123 0.00093036
C  0.00055002 -0.00160641 -0.00195156
C  0.00073255 -0.00190992 -0.00158081
C  0.00033985 -0.00216340 -0.00137390
C  -0.00004547 0.00109596 -0.00234343
C  -0.00041628 0.00075344 -0.00243784
C  -0.00019140 0.00030806 -0.00255963
C  0.00117411 0.00230131 -0.00013741
C  0.00227954 0.00034658 0.00116481
C  -0.00164502 0.00169510 -0.00104967
C  -0.00004226 0.00167285 0.00197108
C  0.00008680 0.00201783 0.00161484
C  -0.00238181 -0.00026232 0.00096975
C  -0.00214201 -0.00026438 0.00142535
C  -0.00131459 0.00217744 -0.00046394
C  -0.00170974 0.00192495 -0.00025703
C  -0.00191159 0.00162570 -0.00061990
C  0.00147740 0.00206770 -0.00047784
C  0.00123704 0.00207124 -0.00093048
C  -0.00054979 0.00160644 0.00195159
C  -0.00033988 0.00216339 0.00137392
C  0.00004548 -0.00109597 0.00234355
C  0.00041600 -0.00075344 0.00243736
C  -0.00243925 0.00022733 0.00082605
C  -0.00223446 0.00052504 0.00119020
C  -0.00205101 0.00021943 0.00156017
C  -0.00179171 -0.00072225 -0.00171876
C  -0.00191962 -0.00106672 -0.00136354
C  0.00031738 0.00037285 -0.00253980
C  0.00040501 0.00086016 -0.00240298
C  -0.00222347 -0.00083411 -0.00102090
C  -0.00227957 -0.00034653 -0.00116479
C  -0.00201473 -0.00027956 -0.00159893
C  -0.00078495 -0.00230547 0.00086908
C  -0.00074526 -0.00244518 0.00037720
C  -0.00117523 -0.00230087 0.00013653
C  0.00019158 -0.00030806 0.00255993
C  -0.00073246 0.00190988 0.00158086
C  -0.00040505 -0.00086017 0.00240301
C  -0.00127706 0.00203675 -0.00095479
60
MD Step 3 Units = [Angstroms / fs]
C  0.00194863 -0.00295095 0.00132779
C  0.00199354 -0.00312156 0.00073276
C  0.00284860 0.00145867 0.00200252
C  0.00269308 0.00104094 0.00243327
C  0.00305932 -0.00028835 -0.00219566
C  0.00316973 0.00029775 -0.00203224
C  0.00239476 -0.00253652 0.00144430
C  0.00271742 -0.00245247 0.00092157
C  0.00247309 -0.00281570 0.00048189
C  -0.00038870 -0.00062426 0.00370475
C  0.00321620 0.00117653 0.00158734
C  0.00296364 0.00050497 0.00228828
C  0.00122760 0.00336475 -0.00119605
C  0.00117980 0.00353381 -0.00059777
C  0.00328174 -0.00065959 -0.00174735
C  0.00353017 -0.00029856 -0.00130501
C  0.00346031 0.00029544 -0.00147923
C  -0.00002453 -0.00292341 -0.00239014
C  0.00013021 -0.00250535 -0.00282277
C  -0.00206681 -0.00307666 0.00072154
C  -0.00177556 -0.00308081 0.00126993
C  0.00074718 -0.00242464 -0.00279862
C  0.00096822 -0.00279253 -0.00234882
C  0.00049238 -0.00309968 -0.00209800
C  -0.00005166 0.00150163 -0.00346681
C  -0.00050140 0.00108609 -0.00358073
C  -0.00022833 0.00054607 -0.00372847
C  0.00169946 0.00336014 -0.00030896
C  0.00328406 0.00058545 0.00176140
C  -0.00239428 0.00253658 -0.00144265
C  -0.00013159 0.00250521 0.00282195
C  0.00002473 0.00292353 0.00239000
C  -0.00346027 -0.00029548 0.00147922
C  -0.00316970 -0.00029772 0.00203224
C  -0.00199376 0.00312137 -0.00073284
C  -0.00247310 0.00281556 -0.00048210
C  -0.00271726 0.00245249 -0.00092192
C  0.00206718 0.00307650 -0.00072138
C  0.00177568 0.00308083 -0.00127010
C  -0.00074686 0.00242467 0.00279867
C  -0.00049242 0.00309967 0.00209802
C  0.00005167 -0.00150165 0.00346697
C  0.00050101 -0.00108609 0.00358004
C  -0.00352985 0.00029850 0.00130533
C  -0.00328154 0.00065931 0.00174711
C  -0.00305930 0.00028835 0.00219576
C  -0.00269323 -0.00104105 -0.00243327
C  -0.00284788 -0.00145862 -0.00200282
C  0.00038870 0.00062432 -0.00370469
C  0.00049428 0.00121543 -0.00353838
C  -0.00321646 -0.00117644 -0.00158720
C  -0.00328410 -0.00058537 -0.00176138
C  -0.00296368 -0.00050485 -0.00228842
C  -0.00122746 -0.00336485 0.00119584
C  -0.00117914 -0.00353382 0.00059930
C  -0.00170104 -0.00335948 0.00030771
C  0.00022857 -0.00054608 0.00372888
C  -0.00096810 0.00279247 0.00234889
C  -0.00049434 -0.00121544 0.00353842
C  -0.00194862 0.00295093 -0.00132790
60
MD Step 4 Units = [Angstroms / fs]
C  0.00265484 -0.00374573 0.00158319
C  0.00269482 -0.00390071 0.00104199
C  0.00373872 0.00169130 0.00259216
C  0.00359786 0.00131141 0.00298364
C  0.00404502 -0.00031150 -0.00266778
C  0.00414564 0.00022061 -0.00251901
C  0.00305982 -0.00336841 0.00168909
C  0.00335279 -0.00329207 0.00121368
C  0.00313170 -0.00362312 0.00081398
C  -0.00036222 -0.00094751 0.00474850
C  0.00407323 0.00143433 0.00221412
C  0.00384419 0.00082499 0.00285263
C  0.00172454 0.00431632 -0.00140141
C  0.00168075 0.00446923 -0.00085618
C  0.00424704 -0.00065027 -0.00225979
C  0.00447311 -0.00032206 -0.00185661
C  0.00440963 0.00021908 -0.00201446
C  0.00015514 -0.00371080 -0.00312675
C  0.00029507 -0.00333041 -0.00352056
C  -0.00248828 -0.00405417 0.00096945
C  -0.00222317 -0.00405795 0.00146812
C  0.00085675 -0.00325688 -0.00349915
C  0.00105729 -0.00359139 -0.00308926
C  0.00062496 -0.00387047 -0.00286115
C  -0.00003936 0.00174706 -0.00453244
C  -0.00044887 0.00136842 -0.00463492
C  -0.00019951 0.00087706 -0.00476948
C  0.00215415 0.00431289 -0.00059476
C  0.00413420 0.00089672 0.00237184
C  -0.00305926 0.00336848 -0.00168710
C  -0.00029675 0.00333024 0.00351962
C  -0.00015490 0.00371093 0.00312656
C  -0.00440957 -0.00021913 0.00201446
C  -0.00414560 -0.00022058 0.00251901
C  -0.00269509 0.00390049 -0.00104209
C  -0.00313172 0.00362295 -0.00081422
C  -0.00335259 0.00329209 -0.00121410
C  0.00248871 0.00405397 -0.00096926
C  0.00222333 0.00405797 -0.00146832
C  -0.00085637 0.00325692 0.00349919
C  -0.00062501 0.00387046 0.00286117
C  0.00003936 -0.00174707 0.00453264
C  0.00044842 -0.00136844 0.00463405
C  -0.00447274 0.00032199 0.00185698
C  -0.00424678 0.00064994 0.00225953
C  -0.00404499 0.00031150 0.00266790
C  -0.00359805 -0.00131153 -0.00298363
C  -0.00373782 -0.00169124 -0.00259253
C  0.00036222 0.00094757 -0.00474844
C  0.00045682 0.00148596 -0.00459619
C  -0.00407354 -0.00143421 -0.00221396
C  -0.00413424 -0.00089663 -0.00237183
C  -0.00384424 -0.00082485 -0.00285280
C  -0.00172436 -0.00431643 0.00140115
C  -0.00167995 -0.00446925 0.00085806
C  -0.00215609 -0.00431204 0.00059323
C  0.00019979 -0.00087709 0.00476996
C  -0.00105715 0.00359133 0.00308935
C  -0.00045689 -0.00148598 0.00459624
C  -0.00265482 0.00374572 -0.00158332
60
MD Step 5 Units = [Angstroms / fs]
C  0.00339911 -0.00439113 0.00169432
C  0.00341905 -0.00447541 0.00139844
C  0.00457728 0.00172932 0.00311834
C  0.00450156 0.00152172 0.00333169
C  0.00499774 -0.00027897 -0.00293888
C  0.00505318 0.00000983 -0.00285723
C  0.00361877 -0.00418399 0.00175209
C  0.00377787 -0.00414247 0.00149223
C  0.00365947 -0.00432496 0.00127414
C  -0.00021719 -0.00135607 0.00563932
C  0.00476051 0.00158803 0.00291071
C  0.00463678 0.00125815 0.00326199
C  0.00228468 0.00513171 -0.00145820
C  0.00226003 0.00521346 -0.00115772
C  0.00510759 -0.00046663 -0.00271531
C  0.00523141 -0.00028756 -0.00249296
C  0.00519686 0.00001024 -0.00257793
C  0.00047644 -0.00435021 -0.00381234
C  0.00055116 -0.00414192 -0.00402838
C  -0.00270324 -0.00498812 0.00122120
C  -0.00255783 -0.00499020 0.00149360
C  0.00085942 -0.00410145 -0.00401786
C  0.00096794 -0.00428413 -0.00379207
C  0.00073260 -0.00443605 -0.00366740
C  -0.00000469 0.00179662 -0.00552199
C  -0.00022959 0.00158810 -0.00557551
C  -0.00009107 0.00131901 -0.00564949
C  0.00252053 0.00513154 -0.00101761
C  0.00479221 0.00129412 0.00299565
C  -0.00361818 0.00418405 -0.00174991
C  -0.00055303 0.00414172 0.00402740
C  -0.00047619 0.00435034 0.00381212
C  -0.00519676 -0.00001028 0.00257794
C  -0.00505314 -0.00000979 0.00285723
C  -0.00341935 0.00447520 -0.00139855
C  -0.00365951 0.00432478 -0.00127439
C  -0.00377763 0.00414248 -0.00149268
C  0.00270369 0.00498789 -0.00122101
C  0.00255802 0.00499022 -0.00149380
C  -0.00085900 0.00410150 0.00401789
C  -0.00073264 0.00443605 0.00366742
C  0.00000466 -0.00179663 0.00552223
C  0.00022914 -0.00158814 0.00557450
C  -0.00523104 0.00028748 0.00249334
C  -0.00510726 0.00046629 0.00271505
C  -0.00499770 0.00027895 0.00293900
C  -0.00450178 -0.00152184 -0.00333168
C  -0.00457622 -0.00172926 -0.00311874
C  0.00021719 0.00135613 -0.00563926
C  0.00026577 0.00165215 -0.00555387
C  -0.00476086 -0.00158790 -0.00291056
C  -0.00479224 -0.00129402 -0.00299563
C  -0.00463682 -0.00125801 -0.00326216
C  -0.00228446 -0.00513183 0.00145792
C  -0.00225916 -0.00521348 0.00115985
C  -0.00252268 -0.00513050 0.00101590
C  0.00009133 -0.00131909 0.00565000
C  -0.00096780 0.00428408 0.00379216
C  -0.00026587 -0.00165217 0.00555394
C  -0.00339907 0.00439112 -0.00169447
60
MD Step 6 Units = [Angstroms / fs]
C  0.00417831 -0.00486616 0.00164572
C  0.00416178 -0.00481986 0.00180350
C  0.00535129 0.00155289 0.00356978
C  0.00539564 0.00166388 0.00345393
C  0.00590529 -0.00018549 -0.00298629
C  0.00587706 -0.00034602 -0.00302890
C  0.00405578 -0.00497402 0.00161450
C  0.00396762 -0.00499682 0.00175326
C  0.00403839 -0.00490411 0.00187091
C  0.00005690 -0.00185468 0.00635359
C  0.00525467 0.00162579 0.00367761
C  0.00532520 0.00181172 0.00349702
C  0.00290911 0.00578970 -0.00135102
C  0.00292010 0.00574040 -0.00150391
C  0.00584486 -0.00009297 -0.00310396
C  0.00577954 -0.00018957 -0.00321662
C  0.00579842 -0.00034240 -0.00316720
C  0.00095056 -0.00482087 -0.00443543
C  0.00090522 -0.00493096 -0.00432246
C  -0.00268900 -0.00586545 0.00147483
C  -0.00276510 -0.00586438 0.00132885
C  0.00074445 -0.00495171 -0.00433173
C  0.00068315 -0.00485366 -0.00444692
C  0.00081178 -0.00477064 -0.00451353
C  0.00005428 0.00163025 -0.00641860
C  0.00017107 0.00173680 -0.00638235
C  0.00010395 0.00187892 -0.00634417
C  0.00278632 0.00579503 -0.00158729
C  0.00523271 0.00178255 0.00362834
C  -0.00405524 0.00497405 -0.00161232
C  -0.00090714 0.00493074 0.00432158
C  -0.00095032 0.00482098 0.00443517
C  -0.00579828 0.00034236 0.00316723
C  -0.00587700 0.00034605 0.00302889
C  -0.00416208 0.00481967 -0.00180362
C  -0.00403846 0.00490393 -0.00187114
C  -0.00396735 0.00499683 -0.00175370
C  0.00268942 0.00586519 -0.00147468
C  0.00276533 0.00586439 -0.00132903
C  -0.00074402 0.00495176 0.00433174
C  -0.00081181 0.00477064 0.00451355
C  -0.00005433 -0.00163026 0.00641887
C  -0.00017147 -0.00173688 0.00638124
C  -0.00577921 0.00018948 0.00321696
C  -0.00584448 0.00009265 0.00310373
C  -0.00590523 0.00018545 0.00298640
C  -0.00539588 -0.00166399 -0.00345392
C  -0.00535012 -0.00155285 -0.00357018
C  -0.00005688 0.00185472 -0.00635354
C  -0.00009245 0.00170201 -0.00639248
C  -0.00525501 -0.00162565 -0.00367748
C  -0.00523273 -0.00178245 -0.00362833
C  -0.00532524 -0.00181160 -0.00349717
C  -0.00290887 -0.00578981 0.00135074
C  -0.00291922 -0.00574045 0.00150616
C  -0.00278855 -0.00579382 0.00158552
C  -0.00010374 -0.00187905 0.00634466
C  -0.00068304 0.00485362 0.00444702
C  0.00009232 -0.00170203 0.00639256
C  -0.00417825 0.00486615 -0.00164587
60
MD Step 7 Units = [Angstroms / fs]
C  0.00498167 -0.00516141 0.00143571
C  0.00491254 -0.00492561 0.00225205
C  0.00604857 0.00116136 0.00393881
C  0.00626701 0.00173483 0.00334521
C  0.00675386 -0.00003150 -0.00280600
C  0.00660408 -0.00084395 -0.00302902
C  0.00436269 -0.00572666 0.00127531
C  0.00391578 -0.00584281 0.00199273
C  0.00426073 -0.00535034 0.00259770
C  0.00045802 -0.00243747 0.00687831
C  0.00554564 0.00154535 0.00450475
C  0.00589794 0.00247951 0.00355169
C  0.00358976 0.00627840 -0.00107898
C  0.00365259 0.00603920 -0.00189041
C  0.00644633 0.00046816 -0.00341911
C  0.00610640 -0.00002856 -0.00401841
C  0.00620282 -0.00083588 -0.00377414
C  0.00157291 -0.00511343 -0.00498605
C  0.00135360 -0.00568576 -0.00439534
C  -0.00244235 -0.00667260 0.00172670
C  -0.00284008 -0.00666696 0.00097341
C  0.00051176 -0.00579543 -0.00443315
C  0.00020414 -0.00528989 -0.00504363
C  0.00086094 -0.00486592 -0.00538789
C  0.00013704 0.00124714 -0.00720792
C  0.00075004 0.00181130 -0.00704177
C  0.00038402 0.00255044 -0.00684068
C  0.00294619 0.00629141 -0.00229775
C  0.00544610 0.00235630 0.00426089
C  -0.00436227 0.00572667 -0.00127333
C  -0.00135543 0.00568553 0.00439468
C  -0.00157271 0.00511350 0.00498576
C  -0.00620264 0.00083585 0.00377418
C  -0.00660401 0.00084397 0.00302901
C  -0.00491281 0.00492547 -0.00225216
C  -0.00426083 0.00535019 -0.00259788
C  -0.00391550 0.00584282 -0.00199313
C  0.00244267 0.00667233 -0.00172660
C  0.00284035 0.00666696 -0.00097354
C  -0.00051136 0.00579547 0.00443312
C  -0.00086095 0.00486592 0.00538791
C  -0.00013713 -0.00124714 0.00720820
C  -0.00075033 -0.00181144 0.00704060
C  -0.00610617 0.00002848 0.00401866
C  -0.00644592 -0.00046842 0.00341895
C  -0.00675379 0.00003144 0.00280608
C  -0.00626727 -0.00173491 -0.00334520
C  -0.00604735 -0.00116135 -0.00393919
C  -0.00045798 0.00243748 -0.00687829
C  -0.00061512 0.00163307 -0.00709809
C  -0.00554596 -0.00154521 -0.00450466
C  -0.00544608 -0.00235621 -0.00426088
C  -0.00589797 -0.00247943 -0.00355181
C  -0.00358950 -0.00627849 0.00107872
C  -0.00365177 -0.00603927 0.00189264
C  -0.00294834 -0.00629006 0.00229603
C  -0.00038391 -0.00255065 0.00684110
C  -0.00020407 0.00528988 0.00504371
C  0.00061498 -0.00163310 0.00709819
C  -0.00498159 0.00516140 -0.00143584
60
MD Step 8 Units = [Angstroms / fs]
C  0.00579018 -0.00528097 0.00107838
C  0.00565440 -0.00480438 0.00273170
C  0.00665839 0.00057594 0.00422220
C  0.00709793 0.00173719 0.00302149
C  0.00752833 0.00017606 -0.00241531
C  0.00722402 -0.00146470 -0.00286765
C  0.00454043 -0.00642765 0.00075379
C  0.00363768 -0.00666241 0.00220666
C  0.00433082 -0.00566170 0.00343093
C  0.00096990 -0.00308675 0.00721313
C  0.00563902 0.00135541 0.00537047
C  0.00634925 0.00324015 0.00343540
C  0.00430842 0.00659706 -0.00065770
C  0.00443720 0.00611674 -0.00230638
C  0.00690683 0.00119344 -0.00365818
C  0.00621785 0.00018823 -0.00487617
C  0.00641279 -0.00145113 -0.00438442
C  0.00232116 -0.00523194 -0.00545640
C  0.00188093 -0.00639180 -0.00425842
C  -0.00198232 -0.00739602 0.00197139
C  -0.00278891 -0.00738456 0.00044627
C  0.00017337 -0.00661452 -0.00433236
C  -0.00044717 -0.00559110 -0.00557253
C  0.00088076 -0.00473389 -0.00626968
C  0.00024039 0.00066842 -0.00787894
C  0.00148414 0.00181435 -0.00754799
C  0.00073800 0.00331230 -0.00713981
C  0.00300286 0.00661965 -0.00312515
C  0.00544104 0.00299780 0.00487945
C  -0.00454018 0.00642761 -0.00075219
C  -0.00188254 0.00639158 0.00425810
C  -0.00232102 0.00523196 0.00545610
C  -0.00641257 0.00145111 0.00438448
C  -0.00722394 0.00146471 0.00286763
C  -0.00565464 0.00480432 -0.00273180
C  -0.00433095 0.00566158 -0.00343104
C  -0.00363739 0.00666240 -0.00220698
C  0.00198252 0.00739576 -0.00197136
C  0.00278920 0.00738455 -0.00044632
C  -0.00017302 0.00661456 0.00433229
C  -0.00088075 0.00473390 0.00626968
C  -0.00024051 -0.00066840 0.00787923
C  -0.00148426 -0.00181455 0.00754682
C  -0.00621776 -0.00018830 0.00487630
C  -0.00690639 -0.00119360 0.00365812
C  -0.00752824 -0.00017614 0.00241536
C  -0.00709820 -0.00173722 -0.00302148
C  -0.00665715 -0.00057596 -0.00422251
C  -0.00096985 0.00308671 -0.00721315
C  -0.00128114 0.00145384 -0.00766308
C  -0.00563927 -0.00135528 -0.00537045
C  -0.00544099 -0.00299772 -0.00487946
C  -0.00634926 -0.00324013 -0.00343546
C  -0.00430815 -0.00659710 0.00065749
C  -0.00443652 -0.00611684 0.00230846
C  -0.00300476 -0.00661817 0.00312360
C  -0.00073803 -0.00331260 0.00714011
C  0.00044719 0.00559112 0.00557261
C  0.00128098 -0.00145386 0.00766320
C  -0.00579007 0.00528095 -0.00107848
60
MD Step 9 Units = [Angstroms / fs]
C  0.00657658 -0.00524331 0.00060427
C  0.00636413 -0.00448910 0.00322271
C  0.00717185 -0.00015940 0.00442150
C  0.00786624 0.00167964 0.00252082
C  0.00821270 0.00042351 -0.00185390
C  0.00773017 -0.00217219 -0.00257068
C  0.00459962 -0.00706050 0.00009036
C  0.00317130 -0.00743203 0.00239129
C  0.00426576 -0.00584515 0.00432964
C  0.00156160 -0.00377270 0.00737125
C  0.00555691 0.00107621 0.00624139
C  0.00667979 0.00405680 0.00317376
C  0.00503662 0.00675687 -0.00012006
C  0.00524149 0.00599869 -0.00273440
C  0.00722918 0.00203809 -0.00382301
C  0.00613769 0.00044657 -0.00575455
C  0.00644623 -0.00215239 -0.00497756
C  0.00315463 -0.00519471 -0.00584126
C  0.00245981 -0.00703209 -0.00394295
C  -0.00135124 -0.00802262 0.00220177
C  -0.00262935 -0.00800444 -0.00021335
C  -0.00024613 -0.00738520 -0.00405847
C  -0.00122738 -0.00576458 -0.00602491
C  0.00087433 -0.00440791 -0.00712893
C  0.00035830 -0.00006195 -0.00842470
C  0.00232945 0.00175496 -0.00790392
C  0.00114483 0.00412795 -0.00725687
C  0.00296761 0.00679037 -0.00402737
C  0.00524557 0.00367730 0.00546549
C  -0.00459959 0.00706041 -0.00008927
C  -0.00246109 0.00703188 0.00394306
C  -0.00315456 0.00519467 0.00584097
C  -0.00644596 0.00215239 0.00497763
C  -0.00773008 0.00217218 0.00257065
C  -0.00636431 0.00448914 -0.00322279
C  -0.00426592 0.00584508 -0.00432966
C  -0.00317104 0.00743200 -0.00239149
C  0.00135129 0.00802237 -0.00220183
C  0.00262966 0.00800441 0.00021338
C  0.00024638 0.00738522 0.00405834
C  -0.00087430 0.00440792 0.00712893
C  -0.00035846 0.00006197 0.00842498
C  -0.00232937 -0.00175522 0.00790278
C  -0.00613777 -0.00044661 0.00575454
C  -0.00722874 -0.00203811 0.00382306
C  -0.00821259 -0.00042362 0.00185391
C  -0.00786650 -0.00167962 -0.00252082
C  -0.00717064 0.00015933 -0.00442172
C  -0.00156155 0.00377260 -0.00737130
C  -0.00205030 0.00118427 -0.00808683
C  -0.00555709 -0.00107610 -0.00624144
C  -0.00524549 -0.00367724 -0.00546551
C  -0.00667977 -0.00405684 -0.00317375
C  -0.00503635 -0.00675686 0.00011993
C  -0.00524101 -0.00599882 0.00273620
C  -0.00296914 -0.00678880 0.00402608
C  -0.00114501 -0.00412834 0.00725701
C  0.00122735 0.00576465 0.00602497
C  0.00205013 -0.00118429 0.00808696
C  -0.00657646 0.00524329 -0.00060434
60
MD Step 10 Units = [Angstroms / fs]
C  0.00730630 -0.00508037 0.00005912
C  0.00701286 -0.00403245 0.00369869
C  0.00758208 -0.00097970 0.00454294
C  0.00854600 0.00157650 0.00190177
C  0.00879043 0.00069099 -0.00118210
C  0.00811933 -0.00291490 -0.00217866
C  0.00456001 -0.00760703 -0.00065512
C  0.00257568 -0.00812323 0.00254310
C  0.00409462 -0.00591610 0.00523692
C  0.00218865 -0.00445449 0.00737865
C  0.00533693 0.00073859 0.00707352
C  0.00689636 0.00487842 0.00280746
C  0.00573660 0.00678034 0.00048517
C  0.00602201 0.00572833 -0.00315106
C  0.00742392 0.00293759 -0.00391967
C  0.00590653 0.00072575 -0.00660627
C  0.00633523 -0.00288864 -0.00552759
C  0.00401587 -0.00503336 -0.00613800
C  0.00305185 -0.00758761 -0.00349863
C  -0.00061296 -0.00853999 0.00240920
C  -0.00239001 -0.00851469 -0.00094756
C  -0.00071050 -0.00807871 -0.00365808
C  -0.00207332 -0.00582621 -0.00639309
C  0.00084699 -0.00394117 -0.00792757
C  0.00048216 -0.00087891 -0.00884221
C  0.00322299 0.00164800 -0.00812075
C  0.00157431 0.00494686 -0.00722092
C  0.00285978 0.00682527 -0.00494558
C  0.00490577 0.00435404 0.00599633
C  -0.00456024 0.00760688 0.00065559
C  -0.00305270 0.00758744 0.00349921
C  -0.00401588 0.00503324 0.00613773
C  -0.00633495 0.00288865 0.00552766
C  -0.00811923 0.00291487 0.00217862
C  -0.00701296 0.00403260 -0.00369875
C  -0.00409481 0.00591609 -0.00523685
C  -0.00257546 0.00812318 -0.00254316
C  0.00061283 0.00853977 -0.00240935
C  0.00239033 0.00851465 0.00094767
C  0.00071064 0.00807871 0.00365792
C  -0.00084694 0.00394119 0.00792755
C  -0.00048235 0.00087894 0.00884248
C  -0.00322268 -0.00164831 0.00811968
C  -0.00590679 -0.00072577 0.00660610
C  -0.00742349 -0.00293746 0.00391984
C  -0.00879031 -0.00069113 0.00118206
C  -0.00854625 -0.00157643 -0.00190177
C  -0.00758094 0.00097959 -0.00454304
C  -0.00218860 0.00445434 -0.00737875
C  -0.00286490 0.00085495 -0.00837545
C  -0.00533702 -0.00073852 -0.00707366
C  -0.00490566 -0.00435400 -0.00599636
C  -0.00689631 -0.00487852 -0.00280736
C  -0.00573634 -0.00678028 -0.00048520
C  -0.00602178 -0.00572849 0.00315247
C  -0.00286083 -0.00682366 0.00494462
C  -0.00157465 -0.00494734 0.00722089
C  0.00207322 0.00582632 0.00639312
C  0.00286473 -0.00085496 0.00837558
C  -0.00730617 0.00508035 -0.00005915
60
MD Step 11 Units = [Angstroms / fs]
C  0.00793933 -0.00483455 -0.00049968
C  0.00756763 -0.00350237 0.00412823
C  0.00788393 -0.00180396 0.00459640
C  0.00910865 0.00144644 0.00123863
C  0.00924489 0.00095389 -0.00047612
C  0.00839126 -0.00362958 -0.00174346
C  0.00444848 -0.00804792 -0.00140782
C  0.00192601 -0.00870415 0.00265889
C  0.00385573 -0.00589663 0.00608386
C  0.00279630 -0.00508295 0.00727137
C  0.00502872 0.00038161 0.00781500
C  0.00701068 0.00564326 0.00238883
C  0.00636368 0.00669884 0.00109706
C  0.00672704 0.00536256 -0.00352846
C  0.00750766 0.00381241 -0.00395757
C  0.00557804 0.00100016 -0.00737507
C  0.00612303 -0.00359720 -0.00600449
C  0.00483471 -0.00478987 -0.00634615
C  0.00361026 -0.00803803 -0.00298944
C  0.00015220 -0.00893654 0.00258397
C  -0.00210788 -0.00890434 -0.00168418
C  -0.00117467 -0.00866270 -0.00319137
C  -0.00290672 -0.00579855 -0.00667039
C  0.00080583 -0.00340225 -0.00862148
C  0.00060140 -0.00170131 -0.00913185
C  0.00408724 0.00151289 -0.00821629
C  0.00198932 0.00570796 -0.00707172
C  0.00270492 0.00675470 -0.00580827
C  0.00448169 0.00497885 0.00644629
C  -0.00444896 0.00804773 0.00140765
C  -0.00361064 0.00803791 0.00299048
C  -0.00483479 0.00478969 0.00634592
C  -0.00612274 0.00359721 0.00600455
C  -0.00839114 0.00362953 0.00174342
C  -0.00756765 0.00350262 -0.00412826
C  -0.00385593 0.00589668 -0.00608369
C  -0.00192587 0.00870407 -0.00265879
C  -0.00015249 0.00893637 -0.00258420
C  0.00210819 0.00890429 0.00168438
C  0.00117467 0.00866269 0.00319117
C  -0.00080576 0.00340226 0.00862145
C  -0.00060163 0.00170135 0.00913209
C  -0.00408671 -0.00151325 0.00821532
C  -0.00557847 -0.00100015 0.00737474
C  -0.00750727 -0.00381212 0.00395786
C  -0.00924474 -0.00095405 0.00047603
C  -0.00910887 -0.00144632 -0.00123864
C  -0.00788290 0.00180382 -0.00459637
C  -0.00279627 0.00508275 -0.00727150
C  -0.00365392 0.00050462 -0.00854050
C  -0.00502871 -0.00038159 -0.00781522
C  -0.00448155 -0.00497884 -0.00644632
C  -0.00701061 -0.00564343 -0.00238864
C  -0.00636343 -0.00669871 -0.00109697
C  -0.00672711 -0.00536274 0.00352941
C  -0.00270540 -0.00675312 0.00580769
C  -0.00198979 -0.00570850 0.00707151
C  0.00290656 0.00579871 0.00667039
C  0.00365375 -0.00050463 0.00854063
C  -0.00793918 0.00483452 0.00049969
60
MD Step 12 Units = [Angstroms / fs]
C  0.00843325 -0.00455376 -0.00100885
C  0.00799371 -0.00297464 0.00447756
C  0.00807349 -0.00254311 0.00459384
C  0.00952466 0.00131042 0.00061376
C  0.00955972 0.00118529 0.00017975
C  0.00854754 -0.00424718 -0.00132275
C  0.00429570 -0.00836363 -0.00208546
C  0.00130580 -0.00914149 0.00273568
C  0.00359228 -0.00581241 0.00679567
C  0.00332472 -0.00560494 0.00709076
C  0.00468819 0.00004847 0.00841026
C  0.00703726 0.00628439 0.00197619
C  0.00686990 0.00654846 0.00164856
C  0.00730098 0.00496539 -0.00383659
C  0.00750044 0.00457555 -0.00394799
C  0.00521271 0.00124173 -0.00800046
C  0.00585868 -0.00420965 -0.00637645
C  0.00553470 -0.00451168 -0.00646660
C  0.00408421 -0.00836265 -0.00248668
C  0.00085551 -0.00920146 0.00271594
C  -0.00182426 -0.00916325 -0.00234390
C  -0.00158909 -0.00910341 -0.00272547
C  -0.00364179 -0.00570784 -0.00685093
C  0.00075887 -0.00286758 -0.00916385
C  0.00070448 -0.00243990 -0.00929603
C  0.00483754 0.00137141 -0.00821202
C  0.00234927 0.00634505 -0.00685475
C  0.00253183 0.00661371 -0.00653778
C  0.00404062 0.00549858 0.00678845
C  -0.00429640 0.00836340 0.00208467
C  -0.00408411 0.00836260 0.00248811
C  -0.00553483 0.00451143 0.00646644
C  -0.00585841 0.00420965 0.00637649
C  -0.00854740 0.00424710 0.00132271
C  -0.00799366 0.00297499 -0.00447758
C  -0.00359248 0.00581253 -0.00679542
C  -0.00130577 0.00914137 -0.00273542
C  -0.00085595 0.00920136 -0.00271623
C  0.00182455 0.00916319 0.00234417
C  0.00158894 0.00910337 0.00272525
C  -0.00075877 0.00286759 0.00916381
C  -0.00070473 0.00243992 0.00929622
C  -0.00483682 -0.00137180 0.00821115
C  -0.00521327 -0.00124170 0.00800000
C  -0.00750011 -0.00457510 0.00394839
C  -0.00955956 -0.00118546 -0.00017988
C  -0.00952483 -0.00131025 -0.00061378
C  -0.00807259 0.00254294 -0.00459365
C  -0.00332471 0.00560469 -0.00709092
C  -0.00433971 0.00017619 -0.00859663
C  -0.00468809 -0.00004851 -0.00841057
C  -0.00404047 -0.00549860 -0.00678847
C  -0.00703716 -0.00628463 -0.00197591
C  -0.00686968 -0.00654826 -0.00164833
C  -0.00730138 -0.00496558 0.00383700
C  -0.00253171 -0.00661222 0.00653755
C  -0.00234985 -0.00634562 0.00685440
C  0.00364159 0.00570802 0.00685091
C  0.00433956 -0.00017619 0.00859675
C  -0.00843310 0.00455372 0.00100891
60
MD Step 13 Units = [Angstroms / fs]
C  0.00874716 -0.00428507 -0.00140665
C  0.00825769 -0.00252353 0.00471399
C  0.00814742 -0.00311029 0.00454723
C  0.00976576 0.00118898 0.00010762
C  0.00971956 0.00135892 0.00070316
C  0.00859025 -0.00470051 -0.00097299
C  0.00413192 -0.00853560 -0.00260775
C  0.00079670 -0.00940331 0.00277076