 Entering Gaussian System, Link 0=g16
 Initial command:
 /software/gaussian/g16-c01/avx2/g16/l1.exe "/gpfs/fs2/scratch/bweight/software/many_molecule_many_mode_NAMD/EXAMPLES/Mccamant_Planarization/Se_Th/GS_OPT/Gau-8790.inp" -scrdir="/gpfs/fs2/scratch/bweight/software/many_molecule_many_mode_NAMD/EXAMPLES/Mccamant_Planarization/Se_Th/GS_OPT/"
 Entering Link 1 = /software/gaussian/g16-c01/avx2/g16/l1.exe PID=      8791.
  
 Copyright (c) 1988-2019, Gaussian, Inc.  All Rights Reserved.
  
 This is part of the Gaussian(R) 16 program.  It is based on
 the Gaussian(R) 09 system (copyright 2009, Gaussian, Inc.),
 the Gaussian(R) 03 system (copyright 2003, Gaussian, Inc.),
 the Gaussian(R) 98 system (copyright 1998, Gaussian, Inc.),
 the Gaussian(R) 94 system (copyright 1995, Gaussian, Inc.),
 the Gaussian 92(TM) system (copyright 1992, Gaussian, Inc.),
 the Gaussian 90(TM) system (copyright 1990, Gaussian, Inc.),
 the Gaussian 88(TM) system (copyright 1988, Gaussian, Inc.),
 the Gaussian 86(TM) system (copyright 1986, Carnegie Mellon
 University), and the Gaussian 82(TM) system (copyright 1983,
 Carnegie Mellon University). Gaussian is a federally registered
 trademark of Gaussian, Inc.
  
 This software contains proprietary and confidential information,
 including trade secrets, belonging to Gaussian, Inc.
  
 This software is provided under written license and may be
 used, copied, transmitted, or stored only in accord with that
 written license.
  
 The following legend is applicable only to US Government
 contracts under FAR:
  
                    RESTRICTED RIGHTS LEGEND
  
 Use, reproduction and disclosure by the US Government is
 subject to restrictions as set forth in subparagraphs (a)
 and (c) of the Commercial Computer Software - Restricted
 Rights clause in FAR 52.227-19.
  
 Gaussian, Inc.
 340 Quinnipiac St., Bldg. 40, Wallingford CT 06492
  
  
 ---------------------------------------------------------------
 Warning -- This program may not be used in any manner that
 competes with the business of Gaussian, Inc. or will provide
 assistance to any competitor of Gaussian, Inc.  The licensee
 of this program is prohibited from giving any competitor of
 Gaussian, Inc. access to this program.  By using this program,
 the user acknowledges that Gaussian, Inc. is engaged in the
 business of creating and licensing software in the field of
 computational chemistry and represents and warrants to the
 licensee that it is not a competitor of Gaussian, Inc. and that
 it will not use this program in any manner prohibited above.
 ---------------------------------------------------------------
  

 Cite this work as:
 Gaussian 16, Revision C.01,
 M. J. Frisch, G. W. Trucks, H. B. Schlegel, G. E. Scuseria, 
 M. A. Robb, J. R. Cheeseman, G. Scalmani, V. Barone, 
 G. A. Petersson, H. Nakatsuji, X. Li, M. Caricato, A. V. Marenich, 
 J. Bloino, B. G. Janesko, R. Gomperts, B. Mennucci, H. P. Hratchian, 
 J. V. Ortiz, A. F. Izmaylov, J. L. Sonnenberg, D. Williams-Young, 
 F. Ding, F. Lipparini, F. Egidi, J. Goings, B. Peng, A. Petrone, 
 T. Henderson, D. Ranasinghe, V. G. Zakrzewski, J. Gao, N. Rega, 
 G. Zheng, W. Liang, M. Hada, M. Ehara, K. Toyota, R. Fukuda, 
 J. Hasegawa, M. Ishida, T. Nakajima, Y. Honda, O. Kitao, H. Nakai, 
 T. Vreven, K. Throssell, J. A. Montgomery, Jr., J. E. Peralta, 
 F. Ogliaro, M. J. Bearpark, J. J. Heyd, E. N. Brothers, K. N. Kudin, 
 V. N. Staroverov, T. A. Keith, R. Kobayashi, J. Normand, 
 K. Raghavachari, A. P. Rendell, J. C. Burant, S. S. Iyengar, 
 J. Tomasi, M. Cossi, J. M. Millam, M. Klene, C. Adamo, R. Cammi, 
 J. W. Ochterski, R. L. Martin, K. Morokuma, O. Farkas, 
 J. B. Foresman, and D. J. Fox, Gaussian, Inc., Wallingford CT, 2019.
 
 ******************************************
 Gaussian 16:  ES64L-G16RevC.01  3-Jul-2019
                 5-Jan-2023 
 ******************************************
 %chk=geometry.chk
 %nprocshared=4
 Will use up to    4 processors via shared memory.
 %mem=5GB
 ------------------
 # OPT B3LYP/6-31G*
 ------------------
 1/18=20,19=15,26=3,38=1/1,3;
 2/9=110,12=2,17=6,18=5,40=1/2;
 3/5=1,6=6,7=1,11=2,25=1,30=1,71=1,74=-5/1,2,3;
 4//1;
 5/5=2,38=5/2;
 6/7=2,8=2,9=2,10=2,28=1/1;
 7//1,2,3,16;
 1/18=20,19=15,26=3/3(2);
 2/9=110/2;
 99//99;
 2/9=110/2;
 3/5=1,6=6,7=1,11=2,25=1,30=1,71=1,74=-5/1,2,3;
 4/5=5,16=3,69=1/1;
 5/5=2,38=5/2;
 7//1,2,3,16;
 1/18=20,19=15,26=3/3(-5);
 2/9=110/2;
 6/7=2,8=2,9=2,10=2,19=2,28=1/1;
 99/9=1/99;
 -------------------
 Title Card Required
 -------------------
 Symbolic Z-matrix:
 Charge =  0 Multiplicity = 1
 C                    -0.71093  -0.03525   0. 
 C                     0.65369  -0.03525   0. 
 C                     1.38659   1.19597   0. 
 C                     0.66259   2.42772  -0.00552 
 C                    -0.76965   2.38622  -0.00682 
 C                    -1.43343   1.19393  -0.00345 
 C                     2.76191   3.66177  -0.00161 
 C                     3.48588   2.43006   0.00581 
 C                     4.91806   2.47169   0.01292 
 H                     5.46393   1.51616   0.01952 
 C                     5.58179   3.66404   0.01396 
 C                     4.85931   4.89316   0.00579 
 C                     3.49467   4.89301  -0.00158 
 H                    -1.2768   -0.97853   0.0024 
 H                     1.22302  -0.97699   0.00311 
 H                    -1.31546   3.34177  -0.01142 
 H                     6.6812    3.69995   0.02012 
 H                     2.92513   5.83463  -0.00785 
 N                     5.61579   6.15357   0.00725 
 N                    -2.90264   1.1456   -0.00536 
 P                     4.88207   9.43561   0.19051 
 C                     2.78549   1.21886   0.0049 
 C                     3.56588  -0.10876   0.00935 
 C                     3.96892  -0.79983   1.13039 
 S                     4.02938  -0.89065  -1.3942 
 C                     4.67319  -1.99777   0.78415 
 H                     3.78572  -0.49265   2.16161 
 C                     4.76781  -2.1516   -0.58115 
 H                     5.07627  -2.68846   1.52701 
 H                     5.25513  -2.97809  -1.09458 
 C                     6.4664    6.21591  -1.19003 
 H                     6.80929   7.21948  -1.33208 
 H                     7.30719   5.56615  -1.06443 
 H                     5.90188   5.90749  -2.04507 
 C                     6.45782   6.21828   1.21046 
 H                     7.2649    5.52178   1.11885 
 H                     6.85094   7.20763   1.31788 
 H                     5.8705    5.97254   2.07044 
 C                    -3.36792   0.43353  -1.20426 
 H                    -3.20749  -0.61703  -1.07987 
 H                    -4.41168   0.62045  -1.34752 
 H                    -2.82326   0.77888  -2.05807 
 C                    -3.37127   0.44028   1.19622 
 H                    -2.87476   0.83504   2.05793 
 H                    -4.42759   0.57557   1.30001 
 H                    -3.15255  -0.60318   1.10536 
 F                     4.18056   7.96431   0.19828 
 F                     3.41081   10.13699   0.17125 
 F                     5.58357   10.90692   0.18273 
 F                     6.35332   8.73423   0.20976 
 F                     4.86803   9.45092   1.82037 
 F                     4.8961    9.4203   -1.43936 
 Se                    1.36297   3.63888  -0.00724 
 
 Add virtual bond connecting atoms F50        and H37        Dist= 3.69D+00.

 GradGradGradGradGradGradGradGradGradGradGradGradGradGradGradGradGradGrad
 Berny optimization.
 Initialization pass.
                           ----------------------------
                           !    Initial Parameters    !
                           ! (Angstroms and Degrees)  !
 --------------------------                            --------------------------
 ! Name  Definition              Value          Derivative Info.                !
 --------------------------------------------------------------------------------
 ! R1    R(1,2)                  1.3646         estimate D2E/DX2                !
 ! R2    R(1,6)                  1.4258         estimate D2E/DX2                !
 ! R3    R(1,14)                 1.1            estimate D2E/DX2                !
 ! R4    R(2,3)                  1.4328         estimate D2E/DX2                !
 ! R5    R(2,15)                 1.1005         estimate D2E/DX2                !
 ! R6    R(3,4)                  1.4288         estimate D2E/DX2                !
 ! R7    R(3,22)                 1.3991         estimate D2E/DX2                !
 ! R8    R(4,5)                  1.4328         estimate D2E/DX2                !
 ! R9    R(4,53)                 1.3991         estimate D2E/DX2                !
 ! R10   R(5,6)                  1.3646         estimate D2E/DX2                !
 ! R11   R(5,16)                 1.1005         estimate D2E/DX2                !
 ! R12   R(6,20)                 1.47           estimate D2E/DX2                !
 ! R13   R(7,8)                  1.4287         estimate D2E/DX2                !
 ! R14   R(7,13)                 1.4328         estimate D2E/DX2                !
 ! R15   R(7,53)                 1.3991         estimate D2E/DX2                !
 ! R16   R(8,9)                  1.4328         estimate D2E/DX2                !
 ! R17   R(8,22)                 1.3991         estimate D2E/DX2                !
 ! R18   R(9,10)                 1.1005         estimate D2E/DX2                !
 ! R19   R(9,11)                 1.3646         estimate D2E/DX2                !
 ! R20   R(11,12)                1.4258         estimate D2E/DX2                !
 ! R21   R(11,17)                1.1            estimate D2E/DX2                !
 ! R22   R(12,13)                1.3647         estimate D2E/DX2                !
 ! R23   R(12,19)                1.47           estimate D2E/DX2                !
 ! R24   R(13,18)                1.1005         estimate D2E/DX2                !
 ! R25   R(19,31)                1.47           estimate D2E/DX2                !
 ! R26   R(19,35)                1.47           estimate D2E/DX2                !
 ! R27   R(20,39)                1.47           estimate D2E/DX2                !
 ! R28   R(20,43)                1.47           estimate D2E/DX2                !
 ! R29   R(21,47)                1.63           estimate D2E/DX2                !
 ! R30   R(21,48)                1.63           estimate D2E/DX2                !
 ! R31   R(21,49)                1.63           estimate D2E/DX2                !
 ! R32   R(21,50)                1.63           estimate D2E/DX2                !
 ! R33   R(21,51)                1.63           estimate D2E/DX2                !
 ! R34   R(21,52)                1.63           estimate D2E/DX2                !
 ! R35   R(22,23)                1.54           estimate D2E/DX2                !
 ! R36   R(23,24)                1.3772         estimate D2E/DX2                !
 ! R37   R(23,25)                1.6722         estimate D2E/DX2                !
 ! R38   R(24,26)                1.4321         estimate D2E/DX2                !
 ! R39   R(24,27)                1.0915         estimate D2E/DX2                !
 ! R40   R(25,28)                1.6722         estimate D2E/DX2                !
 ! R41   R(26,28)                1.3772         estimate D2E/DX2                !
 ! R42   R(26,29)                1.0915         estimate D2E/DX2                !
 ! R43   R(28,30)                1.0882         estimate D2E/DX2                !
 ! R44   R(31,32)                1.07           estimate D2E/DX2                !
 ! R45   R(31,33)                1.07           estimate D2E/DX2                !
 ! R46   R(31,34)                1.07           estimate D2E/DX2                !
 ! R47   R(35,36)                1.07           estimate D2E/DX2                !
 ! R48   R(35,37)                1.07           estimate D2E/DX2                !
 ! R49   R(35,38)                1.07           estimate D2E/DX2                !
 ! R50   R(37,50)                1.9509         estimate D2E/DX2                !
 ! R51   R(39,40)                1.07           estimate D2E/DX2                !
 ! R52   R(39,41)                1.07           estimate D2E/DX2                !
 ! R53   R(39,42)                1.07           estimate D2E/DX2                !
 ! R54   R(43,44)                1.07           estimate D2E/DX2                !
 ! R55   R(43,45)                1.07           estimate D2E/DX2                !
 ! R56   R(43,46)                1.07           estimate D2E/DX2                !
 ! A1    A(2,1,6)              120.4466         estimate D2E/DX2                !
 ! A2    A(2,1,14)             120.9594         estimate D2E/DX2                !
 ! A3    A(6,1,14)             118.5939         estimate D2E/DX2                !
 ! A4    A(1,2,3)              120.7635         estimate D2E/DX2                !
 ! A5    A(1,2,15)             121.155          estimate D2E/DX2                !
 ! A6    A(3,2,15)             118.0813         estimate D2E/DX2                !
 ! A7    A(2,3,4)              118.7901         estimate D2E/DX2                !
 ! A8    A(2,3,22)             121.7006         estimate D2E/DX2                !
 ! A9    A(4,3,22)             119.5092         estimate D2E/DX2                !
 ! A10   A(3,4,5)              118.7868         estimate D2E/DX2                !
 ! A11   A(3,4,53)             119.5145         estimate D2E/DX2                !
 ! A12   A(5,4,53)             121.6986         estimate D2E/DX2                !
 ! A13   A(4,5,6)              120.765          estimate D2E/DX2                !
 ! A14   A(4,5,16)             118.0759         estimate D2E/DX2                !
 ! A15   A(6,5,16)             121.1591         estimate D2E/DX2                !
 ! A16   A(1,6,5)              120.4476         estimate D2E/DX2                !
 ! A17   A(1,6,20)             118.5627         estimate D2E/DX2                !
 ! A18   A(5,6,20)             120.9896         estimate D2E/DX2                !
 ! A19   A(8,7,13)             118.7949         estimate D2E/DX2                !
 ! A20   A(8,7,53)             119.5096         estimate D2E/DX2                !
 ! A21   A(13,7,53)            121.6954         estimate D2E/DX2                !
 ! A22   A(7,8,9)              118.7822         estimate D2E/DX2                !
 ! A23   A(7,8,22)             119.5142         estimate D2E/DX2                !
 ! A24   A(9,8,22)             121.7035         estimate D2E/DX2                !
 ! A25   A(8,9,10)             118.0746         estimate D2E/DX2                !
 ! A26   A(8,9,11)             120.7675         estimate D2E/DX2                !
 ! A27   A(10,9,11)            121.1578         estimate D2E/DX2                !
 ! A28   A(9,11,12)            120.4489         estimate D2E/DX2                !
 ! A29   A(9,11,17)            120.9732         estimate D2E/DX2                !
 ! A30   A(12,11,17)           118.5779         estimate D2E/DX2                !
 ! A31   A(11,12,13)           120.4423         estimate D2E/DX2                !
 ! A32   A(11,12,19)           118.5802         estimate D2E/DX2                !
 ! A33   A(13,12,19)           120.9774         estimate D2E/DX2                !
 ! A34   A(7,13,12)            120.7641         estimate D2E/DX2                !
 ! A35   A(7,13,18)            118.0731         estimate D2E/DX2                !
 ! A36   A(12,13,18)           121.1628         estimate D2E/DX2                !
 ! A37   A(12,19,31)           109.4712         estimate D2E/DX2                !
 ! A38   A(12,19,35)           109.4712         estimate D2E/DX2                !
 ! A39   A(31,19,35)           109.4713         estimate D2E/DX2                !
 ! A40   A(6,20,39)            109.4712         estimate D2E/DX2                !
 ! A41   A(6,20,43)            109.4712         estimate D2E/DX2                !
 ! A42   A(39,20,43)           109.4713         estimate D2E/DX2                !
 ! A43   A(47,21,48)            90.0            estimate D2E/DX2                !
 ! A44   A(47,21,50)            90.0            estimate D2E/DX2                !
 ! A45   A(47,21,51)            90.0            estimate D2E/DX2                !
 ! A46   A(47,21,52)            90.0            estimate D2E/DX2                !
 ! A47   A(48,21,49)            90.0            estimate D2E/DX2                !
 ! A48   A(48,21,51)            90.0            estimate D2E/DX2                !
 ! A49   A(48,21,52)            90.0            estimate D2E/DX2                !
 ! A50   A(49,21,50)            90.0            estimate D2E/DX2                !
 ! A51   A(49,21,51)            90.0            estimate D2E/DX2                !
 ! A52   A(49,21,52)            90.0            estimate D2E/DX2                !
 ! A53   A(50,21,51)            90.0            estimate D2E/DX2                !
 ! A54   A(50,21,52)            90.0            estimate D2E/DX2                !
 ! A55   A(3,22,8)             120.9763         estimate D2E/DX2                !
 ! A56   A(3,22,23)            119.5106         estimate D2E/DX2                !
 ! A57   A(8,22,23)            119.5131         estimate D2E/DX2                !
 ! A58   A(22,23,24)           125.6782         estimate D2E/DX2                !
 ! A59   A(22,23,25)           122.7613         estimate D2E/DX2                !
 ! A60   A(24,23,25)           111.5605         estimate D2E/DX2                !
 ! A61   A(23,24,26)           111.5216         estimate D2E/DX2                !
 ! A62   A(23,24,27)           125.3597         estimate D2E/DX2                !
 ! A63   A(26,24,27)           123.1187         estimate D2E/DX2                !
 ! A64   A(23,25,28)            93.835          estimate D2E/DX2                !
 ! A65   A(24,26,28)           111.5245         estimate D2E/DX2                !
 ! A66   A(24,26,29)           123.1189         estimate D2E/DX2                !
 ! A67   A(28,26,29)           125.3567         estimate D2E/DX2                !
 ! A68   A(25,28,26)           111.5584         estimate D2E/DX2                !
 ! A69   A(25,28,30)           122.7558         estimate D2E/DX2                !
 ! A70   A(26,28,30)           125.6858         estimate D2E/DX2                !
 ! A71   A(19,31,32)           109.4712         estimate D2E/DX2                !
 ! A72   A(19,31,33)           109.4712         estimate D2E/DX2                !
 ! A73   A(19,31,34)           109.4712         estimate D2E/DX2                !
 ! A74   A(32,31,33)           109.4713         estimate D2E/DX2                !
 ! A75   A(32,31,34)           109.4712         estimate D2E/DX2                !
 ! A76   A(33,31,34)           109.4712         estimate D2E/DX2                !
 ! A77   A(19,35,36)           109.4712         estimate D2E/DX2                !
 ! A78   A(19,35,37)           109.4712         estimate D2E/DX2                !
 ! A79   A(19,35,38)           109.4712         estimate D2E/DX2                !
 ! A80   A(36,35,37)           109.4713         estimate D2E/DX2                !
 ! A81   A(36,35,38)           109.4712         estimate D2E/DX2                !
 ! A82   A(37,35,38)           109.4712         estimate D2E/DX2                !
 ! A83   A(35,37,50)           124.9447         estimate D2E/DX2                !
 ! A84   A(20,39,40)           109.4712         estimate D2E/DX2                !
 ! A85   A(20,39,41)           109.4712         estimate D2E/DX2                !
 ! A86   A(20,39,42)           109.4712         estimate D2E/DX2                !
 ! A87   A(40,39,41)           109.4713         estimate D2E/DX2                !
 ! A88   A(40,39,42)           109.4712         estimate D2E/DX2                !
 ! A89   A(41,39,42)           109.4712         estimate D2E/DX2                !
 ! A90   A(20,43,44)           109.4712         estimate D2E/DX2                !
 ! A91   A(20,43,45)           109.4712         estimate D2E/DX2                !
 ! A92   A(20,43,46)           109.4712         estimate D2E/DX2                !
 ! A93   A(44,43,45)           109.4713         estimate D2E/DX2                !
 ! A94   A(44,43,46)           109.4712         estimate D2E/DX2                !
 ! A95   A(45,43,46)           109.4712         estimate D2E/DX2                !
 ! A96   A(21,50,37)           125.005          estimate D2E/DX2                !
 ! A97   A(4,53,7)             120.9759         estimate D2E/DX2                !
 ! A98   L(47,21,49,48,-1)     180.0            estimate D2E/DX2                !
 ! A99   L(48,21,50,47,-1)     180.0            estimate D2E/DX2                !
 ! A100  L(51,21,52,47,-1)     180.0            estimate D2E/DX2                !
 ! A101  L(47,21,49,48,-2)     180.0            estimate D2E/DX2                !
 ! A102  L(48,21,50,47,-2)     180.0            estimate D2E/DX2                !
 ! A103  L(51,21,52,47,-2)     180.0            estimate D2E/DX2                !
 ! D1    D(6,1,2,3)              0.1607         estimate D2E/DX2                !
 ! D2    D(6,1,2,15)           179.9717         estimate D2E/DX2                !
 ! D3    D(14,1,2,3)          -179.854          estimate D2E/DX2                !
 ! D4    D(14,1,2,15)           -0.0429         estimate D2E/DX2                !
 ! D5    D(2,1,6,5)              0.0013         estimate D2E/DX2                !
 ! D6    D(2,1,6,20)           179.9091         estimate D2E/DX2                !
 ! D7    D(14,1,6,5)          -179.9844         estimate D2E/DX2                !
 ! D8    D(14,1,6,20)           -0.0766         estimate D2E/DX2                !
 ! D9    D(1,2,3,4)             -0.2525         estimate D2E/DX2                !
 ! D10   D(1,2,3,22)           179.7643         estimate D2E/DX2                !
 ! D11   D(15,2,3,4)           179.9308         estimate D2E/DX2                !
 ! D12   D(15,2,3,22)           -0.0524         estimate D2E/DX2                !
 ! D13   D(2,3,4,5)              0.1839         estimate D2E/DX2                !
 ! D14   D(2,3,4,53)          -179.9227         estimate D2E/DX2                !
 ! D15   D(22,3,4,5)          -179.8326         estimate D2E/DX2                !
 ! D16   D(22,3,4,53)            0.0609         estimate D2E/DX2                !
 ! D17   D(2,3,22,8)          -179.9531         estimate D2E/DX2                !
 ! D18   D(2,3,22,23)            0.0469         estimate D2E/DX2                !
 ! D19   D(4,3,22,8)             0.0639         estimate D2E/DX2                !
 ! D20   D(4,3,22,23)         -179.9361         estimate D2E/DX2                !
 ! D21   D(3,4,5,6)             -0.0283         estimate D2E/DX2                !
 ! D22   D(3,4,5,16)          -179.98           estimate D2E/DX2                !
 ! D23   D(53,4,5,6)          -179.9193         estimate D2E/DX2                !
 ! D24   D(53,4,5,16)            0.129          estimate D2E/DX2                !
 ! D25   D(3,4,53,7)            -0.0966         estimate D2E/DX2                !
 ! D26   D(5,4,53,7)           179.7937         estimate D2E/DX2                !
 ! D27   D(4,5,6,1)             -0.0673         estimate D2E/DX2                !
 ! D28   D(4,5,6,20)          -179.9728         estimate D2E/DX2                !
 ! D29   D(16,5,6,1)           179.8829         estimate D2E/DX2                !
 ! D30   D(16,5,6,20)           -0.0226         estimate D2E/DX2                !
 ! D31   D(1,6,20,39)          -59.9537         estimate D2E/DX2                !
 ! D32   D(1,6,20,43)           60.0463         estimate D2E/DX2                !
 ! D33   D(5,6,20,39)          119.9536         estimate D2E/DX2                !
 ! D34   D(5,6,20,43)         -120.0464         estimate D2E/DX2                !
 ! D35   D(13,7,8,9)            -0.0041         estimate D2E/DX2                !
 ! D36   D(13,7,8,22)         -179.9538         estimate D2E/DX2                !
 ! D37   D(53,7,8,9)          -179.9353         estimate D2E/DX2                !
 ! D38   D(53,7,8,22)            0.115          estimate D2E/DX2                !
 ! D39   D(8,7,13,12)           -0.0189         estimate D2E/DX2                !
 ! D40   D(8,7,13,18)          179.9695         estimate D2E/DX2                !
 ! D41   D(53,7,13,12)         179.9107         estimate D2E/DX2                !
 ! D42   D(53,7,13,18)          -0.1009         estimate D2E/DX2                !
 ! D43   D(8,7,53,4)             0.0089         estimate D2E/DX2                !
 ! D44   D(13,7,53,4)         -179.9202         estimate D2E/DX2                !
 ! D45   D(7,8,9,10)           179.9455         estimate D2E/DX2                !
 ! D46   D(7,8,9,11)             0.065          estimate D2E/DX2                !
 ! D47   D(22,8,9,10)           -0.106          estimate D2E/DX2                !
 ! D48   D(22,8,9,11)         -179.9865         estimate D2E/DX2                !
 ! D49   D(7,8,22,3)            -0.1515         estimate D2E/DX2                !
 ! D50   D(7,8,22,23)          179.8485         estimate D2E/DX2                !
 ! D51   D(9,8,22,3)           179.9003         estimate D2E/DX2                !
 ! D52   D(9,8,22,23)           -0.0997         estimate D2E/DX2                !
 ! D53   D(8,9,11,12)           -0.1018         estimate D2E/DX2                !
 ! D54   D(8,9,11,17)          179.9569         estimate D2E/DX2                !
 ! D55   D(10,9,11,12)        -179.9786         estimate D2E/DX2                !
 ! D56   D(10,9,11,17)           0.0801         estimate D2E/DX2                !
 ! D57   D(9,11,12,13)           0.078          estimate D2E/DX2                !
 ! D58   D(9,11,12,19)         179.9999         estimate D2E/DX2                !
 ! D59   D(17,11,12,13)       -179.9793         estimate D2E/DX2                !
 ! D60   D(17,11,12,19)         -0.0574         estimate D2E/DX2                !
 ! D61   D(11,12,13,7)          -0.0166         estimate D2E/DX2                !
 ! D62   D(11,12,13,18)        179.9954         estimate D2E/DX2                !
 ! D63   D(19,12,13,7)        -179.9366         estimate D2E/DX2                !
 ! D64   D(19,12,13,18)          0.0754         estimate D2E/DX2                !
 ! D65   D(11,12,19,31)         60.2002         estimate D2E/DX2                !
 ! D66   D(11,12,19,35)        -59.7998         estimate D2E/DX2                !
 ! D67   D(13,12,19,31)       -119.8783         estimate D2E/DX2                !
 ! D68   D(13,12,19,35)        120.1217         estimate D2E/DX2                !
 ! D69   D(12,19,31,32)        164.8155         estimate D2E/DX2                !
 ! D70   D(12,19,31,33)        -75.1845         estimate D2E/DX2                !
 ! D71   D(12,19,31,34)         44.8155         estimate D2E/DX2                !
 ! D72   D(35,19,31,32)        -75.1845         estimate D2E/DX2                !
 ! D73   D(35,19,31,33)         44.8155         estimate D2E/DX2                !
 ! D74   D(35,19,31,34)        164.8155         estimate D2E/DX2                !
 ! D75   D(12,19,35,36)         71.5605         estimate D2E/DX2                !
 ! D76   D(12,19,35,37)       -168.4394         estimate D2E/DX2                !
 ! D77   D(12,19,35,38)        -48.4394         estimate D2E/DX2                !
 ! D78   D(31,19,35,36)        -48.4394         estimate D2E/DX2                !
 ! D79   D(31,19,35,37)         71.5606         estimate D2E/DX2                !
 ! D80   D(31,19,35,38)       -168.4394         estimate D2E/DX2                !
 ! D81   D(6,20,39,40)          75.0821         estimate D2E/DX2                !
 ! D82   D(6,20,39,41)        -164.9179         estimate D2E/DX2                !
 ! D83   D(6,20,39,42)         -44.9179         estimate D2E/DX2                !
 ! D84   D(43,20,39,40)        -44.9179         estimate D2E/DX2                !
 ! D85   D(43,20,39,41)         75.0821         estimate D2E/DX2                !
 ! D86   D(43,20,39,42)       -164.9179         estimate D2E/DX2                !
 ! D87   D(6,20,43,44)          48.5804         estimate D2E/DX2                !
 ! D88   D(6,20,43,45)         168.5804         estimate D2E/DX2                !
 ! D89   D(6,20,43,46)         -71.4196         estimate D2E/DX2                !
 ! D90   D(39,20,43,44)        168.5804         estimate D2E/DX2                !
 ! D91   D(39,20,43,45)        -71.4196         estimate D2E/DX2                !
 ! D92   D(39,20,43,46)         48.5804         estimate D2E/DX2                !
 ! D93   D(47,21,50,37)        -42.9791         estimate D2E/DX2                !
 ! D94   D(49,21,50,37)        137.0209         estimate D2E/DX2                !
 ! D95   D(51,21,50,37)         47.0209         estimate D2E/DX2                !
 ! D96   D(52,21,50,37)       -132.9791         estimate D2E/DX2                !
 ! D97   D(3,22,23,24)         -89.996          estimate D2E/DX2                !
 ! D98   D(3,22,23,25)          90.0            estimate D2E/DX2                !
 ! D99   D(8,22,23,24)          90.004          estimate D2E/DX2                !
 ! D100  D(8,22,23,25)         -90.0            estimate D2E/DX2                !
 ! D101  D(22,23,24,26)        179.9669         estimate D2E/DX2                !
 ! D102  D(22,23,24,27)         -0.0168         estimate D2E/DX2                !
 ! D103  D(25,23,24,26)         -0.0295         estimate D2E/DX2                !
 ! D104  D(25,23,24,27)        179.9868         estimate D2E/DX2                !
 ! D105  D(22,23,25,28)       -179.9841         estimate D2E/DX2                !
 ! D106  D(24,23,25,28)          0.0124         estimate D2E/DX2                !
 ! D107  D(23,24,26,28)          0.0362         estimate D2E/DX2                !
 ! D108  D(23,24,26,29)       -179.9641         estimate D2E/DX2                !
 ! D109  D(27,24,26,28)       -179.9797         estimate D2E/DX2                !
 ! D110  D(27,24,26,29)          0.0199         estimate D2E/DX2                !
 ! D111  D(23,25,28,26)          0.0088         estimate D2E/DX2                !
 ! D112  D(23,25,28,30)       -179.9872         estimate D2E/DX2                !
 ! D113  D(24,26,28,25)         -0.0269         estimate D2E/DX2                !
 ! D114  D(24,26,28,30)        179.969          estimate D2E/DX2                !
 ! D115  D(29,26,28,25)        179.9735         estimate D2E/DX2                !
 ! D116  D(29,26,28,30)         -0.0306         estimate D2E/DX2                !
 ! D117  D(19,35,37,50)          6.7318         estimate D2E/DX2                !
 ! D118  D(36,35,37,50)        126.7318         estimate D2E/DX2                !
 ! D119  D(38,35,37,50)       -113.2682         estimate D2E/DX2                !
 ! D120  D(35,37,50,21)         66.8901         estimate D2E/DX2                !
 --------------------------------------------------------------------------------
 Trust Radius=3.00D-01 FncErr=1.00D-07 GrdErr=1.00D-06 EigMax=2.50D+02 EigMin=1.00D-04
 Number of steps in this run=    289 maximum allowed number of steps=    318.
 GradGradGradGradGradGradGradGradGradGradGradGradGradGradGradGradGradGrad

 Stoichiometry    C21H21F6N2PSSe
 Framework group  C1[X(C21H21F6N2PSSe)]
 Deg. of freedom   153
 Full point group                 C1      NOp   1
 Largest Abelian subgroup         C1      NOp   1
 Largest concise Abelian subgroup C1      NOp   1
                         Standard orientation:                         
 ---------------------------------------------------------------------
 Center     Atomic      Atomic             Coordinates (Angstroms)
 Number     Number       Type             X           Y           Z
 ---------------------------------------------------------------------
      1          6           0        5.179227   -1.330498    0.074680
      2          6           0        4.529328   -0.130935    0.104280
      3          6           0        3.098113   -0.071762    0.070267
      4          6           0        2.360416   -1.293295   -0.000882
      5          6           0        3.079018   -2.532530   -0.031565
      6          6           0        4.443020   -2.549582    0.005736
      7          6           0        0.275857   -0.034468   -0.001470
      8          6           0        1.013481    1.186947    0.071575
      9          6           0        0.294642    2.425844    0.108056
     10          1           0        0.874362    3.359496    0.165225
     11          6           0       -1.069504    2.442657    0.075159
     12          6           0       -1.805542    1.223807    0.001500
     13          6           0       -1.155320    0.024578   -0.035454
     14          1           0        6.277752   -1.379775    0.103045
     15          1           0        5.085843    0.816915    0.157907
     16          1           0        2.499204   -3.466217   -0.086739
     17          1           0       -1.624808    3.391785    0.103705
     18          1           0       -1.711548   -0.923286   -0.092244
     19          7           0       -3.273685    1.289788   -0.031723
     20          7           0        5.185253   -3.818037   -0.026083
     21         15           0       -5.813631   -0.921830    0.002380
     22          6           0        2.411647    1.146868    0.104573
     23          6           0        3.206777    2.463574    0.179767
     24          6           0        3.593851    3.103238    1.336381
     25         16           0        3.708824    3.296414   -1.180553
     26          6           0        4.320140    4.304871    1.054344
     27          1           0        3.384989    2.756660    2.350085
     28          6           0        4.444862    4.513529   -0.301226
     29          1           0        4.716435    4.958897    1.833161
     30          1           0        4.952223    5.354353   -0.770038
     31          6           0       -3.703262    2.053828   -1.211811
     32          1           0       -4.745047    1.883796   -1.386953
     33          1           0       -3.535759    3.096866   -1.041767
     34          1           0       -3.141667    1.736960   -2.065687
     35          6           0       -3.762049    1.953044    1.185852
     36          1           0       -3.531916    2.997001    1.140088
     37          1           0       -4.821580    1.824366    1.261584
     38          1           0       -3.288127    1.520545    2.042148
     39          6           0        6.063076   -3.842664   -1.204947
     40          1           0        6.906915   -3.207192   -1.034621
     41          1           0        6.399505   -4.843501   -1.378272
     42          1           0        5.521767   -3.495226   -2.060033
     43          6           0        5.997947   -3.940919    1.192657
     44          1           0        5.392684   -3.725126    2.048221
     45          1           0        6.379478   -4.937748    1.267931
     46          1           0        6.813233   -3.249328    1.148929
     47          9           0       -4.186542   -0.839624    0.054575
     48          9           0       -5.728934   -2.547681   -0.077202
     49          9           0       -7.440720   -1.004036   -0.049816
     50          9           0       -5.898328    0.704022    0.081961
     51          9           0       -5.861680   -1.003981    1.629599
     52          9           0       -5.765582   -0.839678   -1.624839
     53         34           0        0.962356   -1.253108   -0.036506
 ---------------------------------------------------------------------
 Rotational constants (GHZ):           0.1718792           0.0505703           0.0409084
 Standard basis: 6-31G(d) (6D, 7F)
 There are   545 symmetry adapted cartesian basis functions of A   symmetry.
 There are   545 symmetry adapted basis functions of A   symmetry.
   545 basis functions,  1083 primitive gaussians,   545 cartesian basis functions
   140 alpha electrons      140 beta electrons
       nuclear repulsion energy      4479.3548201144 Hartrees.
 NAtoms=   53 NActive=   53 NUniq=   53 SFac= 1.00D+00 NAtFMM=   60 NAOKFM=F Big=F
 Integral buffers will be    131072 words long.
 Raffenetti 2 integral format.
 Two-electron integral symmetry is turned on.
 One-electron integrals computed using PRISM.
 NBasis=   545 RedAO= T EigKep=  2.99D-04  NBF=   545
 NBsUse=   545 1.00D-06 EigRej= -1.00D+00 NBFU=   545
 ExpMin= 9.98D-02 ExpMax= 5.61D+05 ExpMxC= 5.42D+03 IAcc=3 IRadAn=         5 AccDes= 0.00D+00
 Harris functional with IExCor=  402 and IRadAn=       5 diagonalized for initial guess.
 HarFok:  IExCor=  402 AccDes= 0.00D+00 IRadAn=         5 IDoV= 1 UseB2=F ITyADJ=14
 ICtDFT=  3500011 ScaDFX=  1.000000  1.000000  1.000000  1.000000
 FoFCou: FMM=F IPFlag=           0 FMFlag=      100000 FMFlg1=           0
         NFxFlg=           0 DoJE=T BraDBF=F KetDBF=T FulRan=T
         wScrn=  0.000000 ICntrl=       500 IOpCl=  0 I1Cent=   200000004 NGrid=           0
         NMat0=    1 NMatS0=      1 NMatT0=    0 NMatD0=    1 NMtDS0=    0 NMtDT0=    0
 Petite list used in FoFCou.
 Requested convergence on RMS density matrix=1.00D-08 within 128 cycles.
 Requested convergence on MAX density matrix=1.00D-06.
 Requested convergence on             energy=1.00D-06.
 No special actions if energy rises.
 Integral accuracy reduced to 1.0D-05 until final iterations.
 EnCoef did     1 forward-backward iterations
 Initial convergence to 1.0D-05 achieved.  Increase integral accuracy.
 SCF Done:  E(RB3LYP) =  -4659.97610020     A.U. after   21 cycles
            NFock= 21  Conv=0.11D-08     -V/T= 2.0047

 **********************************************************************

            Population analysis using the SCF Density.

 **********************************************************************

 Orbital symmetries:
       Occupied  (A) (A) (A) (A) (A) (A) (A) (A) (A) (A) (A) (A)
                 (A) (A) (A) (A) (A) (A) (A) (A) (A) (A) (A) (A)
                 (A) (A) (A) (A) (A) (A) (A) (A) (A) (A) (A) (A)
                 (A) (A) (A) (A) (A) (A) (A) (A) (A) (A) (A) (A)
                 (A) (A) (A) (A) (A) (A) (A) (A) (A) (A) (A) (A)
                 (A) (A) (A) (A) (A) (A) (A) (A) (A) (A) (A) (A)
                 (A) (A) (A) (A) (A) (A) (A) (A) (A) (A) (A) (A)
                 (A) (A) (A) (A) (A) (A) (A) (A) (A) (A) (A) (A)
                 (A) (A) (A) (A) (A) (A) (A) (A) (A) (A) (A) (A)
                 (A) (A) (A) (A) (A) (A) (A) (A) (A) (A) (A) (A)
                 (A) (A) (A) (A) (A) (A) (A) (A) (A) (A) (A) (A)
                 (A) (A) (A) (A) (A) (A) (A) (A)
       Virtual   (A) (A) (A) (A) (A) (A) (A) (A) (A) (A) (A) (A)
                 (A) (A) (A) (A) (A) (A) (A) (A) (A) (A) (A) (A)
                 (A) (A) (A) (A) (A) (A) (A) (A) (A) (A) (A) (A)
                 (A) (A) (A) (A) (A) (A) (A) (A) (A) (A) (A) (A)
                 (A) (A) (A) (A) (A) (A) (A) (A) (A) (A) (A) (A)
                 (A) (A) (A) (A) (A) (A) (A) (A) (A) (A) (A) (A)
                 (A) (A) (A) (A) (A) (A) (A) (A) (A) (A) (A) (A)
                 (A) (A) (A) (A) (A) (A) (A) (A) (A) (A) (A) (A)
                 (A) (A) (A) (A) (A) (A) (A) (A) (A) (A) (A) (A)
                 (A) (A) (A) (A) (A) (A) (A) (A) (A) (A) (A) (A)
                 (A) (A) (A) (A) (A) (A) (A) (A) (A) (A) (A) (A)
                 (A) (A) (A) (A) (A) (A) (A) (A) (A) (A) (A) (A)
                 (A) (A) (A) (A) (A) (A) (A) (A) (A) (A) (A) (A)
                 (A) (A) (A) (A) (A) (A) (A) (A) (A) (A) (A) (A)
                 (A) (A) (A) (A) (A) (A) (A) (A) (A) (A) (A) (A)
                 (A) (A) (A) (A) (A) (A) (A) (A) (A) (A) (A) (A)
                 (A) (A) (A) (A) (A) (A) (A) (A) (A) (A) (A) (A)
                 (A) (A) (A) (A) (A) (A) (A) (A) (A) (A) (A) (A)
                 (A) (A) (A) (A) (A) (A) (A) (A) (A) (A) (A) (A)
                 (A) (A) (A) (A) (A) (A) (A) (A) (A) (A) (A) (A)
                 (A) (A) (A) (A) (A) (A) (A) (A) (A) (A) (A) (A)
                 (A) (A) (A) (A) (A) (A) (A) (A) (A) (A) (A) (A)
                 (A) (A) (A) (A) (A) (A) (A) (A) (A) (A) (A) (A)
                 (A) (A) (A) (A) (A) (A) (A) (A) (A) (A) (A) (A)
                 (A) (A) (A) (A) (A) (A) (A) (A) (A) (A) (A) (A)
                 (A) (A) (A) (A) (A) (A) (A) (A) (A) (A) (A) (A)
                 (A) (A) (A) (A) (A) (A) (A) (A) (A) (A) (A) (A)
                 (A) (A) (A) (A) (A) (A) (A) (A) (A) (A) (A) (A)
                 (A) (A) (A) (A) (A) (A) (A) (A) (A) (A) (A) (A)
                 (A) (A) (A) (A) (A) (A) (A) (A) (A) (A) (A) (A)
                 (A) (A) (A) (A) (A) (A) (A) (A) (A) (A) (A) (A)
                 (A) (A) (A) (A) (A) (A) (A) (A) (A) (A) (A) (A)
                 (A) (A) (A) (A) (A) (A) (A) (A) (A) (A) (A) (A)
                 (A) (A) (A) (A) (A) (A) (A) (A) (A)
 The electronic state is 1-A.
 Alpha  occ. eigenvalues -- -453.96808 -88.96053 -77.23150 -57.57389 -52.25566
 Alpha  occ. eigenvalues --  -52.25299 -52.25209 -24.58596 -24.57263 -24.56779
 Alpha  occ. eigenvalues --  -24.56667 -24.55967 -24.55954 -14.38110 -14.31321
 Alpha  occ. eigenvalues --  -10.29728 -10.29202 -10.29156 -10.29076 -10.28577
 Alpha  occ. eigenvalues --  -10.28364 -10.27300 -10.26997 -10.26700 -10.26535
 Alpha  occ. eigenvalues --  -10.26443 -10.25774 -10.25148 -10.24743 -10.24490
 Alpha  occ. eigenvalues --  -10.24454 -10.24022 -10.24001 -10.23954 -10.17447
 Alpha  occ. eigenvalues --  -10.16913  -8.02319  -7.84755  -6.65191  -5.98714
 Alpha  occ. eigenvalues --   -5.98307  -5.98048  -5.89498  -5.88470  -5.88240
 Alpha  occ. eigenvalues --   -4.81754  -4.81723  -4.81718  -2.25640  -2.25401
 Alpha  occ. eigenvalues --   -2.24794  -2.23849  -2.23821  -1.14815  -1.07699
 Alpha  occ. eigenvalues --   -1.06858  -1.06704  -1.06687  -1.03576  -1.03392
 Alpha  occ. eigenvalues --   -0.98193  -0.94997  -0.94278  -0.92112  -0.90586
 Alpha  occ. eigenvalues --   -0.86518  -0.84807  -0.80914  -0.78857  -0.78714
 Alpha  occ. eigenvalues --   -0.77452  -0.75503  -0.72567  -0.71991  -0.68945
 Alpha  occ. eigenvalues --   -0.68660  -0.67722  -0.66350  -0.63245  -0.60858
 Alpha  occ. eigenvalues --   -0.59965  -0.59383  -0.58416  -0.57173  -0.55318
 Alpha  occ. eigenvalues --   -0.55096  -0.54467  -0.53883  -0.53774  -0.52780
 Alpha  occ. eigenvalues --   -0.50441  -0.49821  -0.49737  -0.49229  -0.48208
 Alpha  occ. eigenvalues --   -0.46586  -0.46109  -0.45271  -0.45230  -0.44543
 Alpha  occ. eigenvalues --   -0.44433  -0.44217  -0.43968  -0.43637  -0.43522
 Alpha  occ. eigenvalues --   -0.43511  -0.42909  -0.42786  -0.42315  -0.41347
 Alpha  occ. eigenvalues --   -0.41196  -0.40860  -0.40452  -0.39467  -0.38609
 Alpha  occ. eigenvalues --   -0.36307  -0.36197  -0.35680  -0.35481  -0.35277
 Alpha  occ. eigenvalues --   -0.35011  -0.34817  -0.34139  -0.33261  -0.32993
 Alpha  occ. eigenvalues --   -0.31114  -0.29959  -0.29126  -0.28839  -0.28555
 Alpha  occ. eigenvalues --   -0.28467  -0.28350  -0.28290  -0.28193  -0.27330
 Alpha  occ. eigenvalues --   -0.27229  -0.24854  -0.24688  -0.24480  -0.18664
 Alpha virt. eigenvalues --   -0.14199  -0.11521  -0.06684  -0.05781  -0.04998
 Alpha virt. eigenvalues --   -0.00757   0.00002   0.01443   0.03527   0.05367
 Alpha virt. eigenvalues --    0.05800   0.05850   0.06138   0.07126   0.07492
 Alpha virt. eigenvalues --    0.08211   0.08487   0.10069   0.10936   0.10981
 Alpha virt. eigenvalues --    0.11615   0.11971   0.12056   0.12404   0.12932
 Alpha virt. eigenvalues --    0.13635   0.13897   0.15066   0.15205   0.16166
 Alpha virt. eigenvalues --    0.17676   0.17763   0.18287   0.18567   0.18764
 Alpha virt. eigenvalues --    0.19876   0.20178   0.20955   0.21215   0.21495
 Alpha virt. eigenvalues --    0.21851   0.22989   0.23100   0.23509   0.24706
 Alpha virt. eigenvalues --    0.25192   0.25873   0.26076   0.26551   0.28014
 Alpha virt. eigenvalues --    0.28365   0.28454   0.30468   0.32247   0.33068
 Alpha virt. eigenvalues --    0.33301   0.34414   0.34542   0.35578   0.35664
 Alpha virt. eigenvalues --    0.37171   0.37319   0.37835   0.38950   0.39829
 Alpha virt. eigenvalues --    0.41406   0.42286   0.43224   0.43843   0.44645
 Alpha virt. eigenvalues --    0.45155   0.45187   0.45594   0.46118   0.46330
 Alpha virt. eigenvalues --    0.46824   0.47048   0.47238   0.47415   0.48504
 Alpha virt. eigenvalues --    0.48708   0.49149   0.50179   0.50409   0.51089
 Alpha virt. eigenvalues --    0.51343   0.52250   0.52743   0.52884   0.53322
 Alpha virt. eigenvalues --    0.54091   0.54732   0.55376   0.55872   0.56274
 Alpha virt. eigenvalues --    0.56725   0.56916   0.57666   0.59223   0.59722
 Alpha virt. eigenvalues --    0.60074   0.60551   0.60927   0.62328   0.63149
 Alpha virt. eigenvalues --    0.64618   0.65302   0.66271   0.67524   0.68250
 Alpha virt. eigenvalues --    0.68595   0.69296   0.69592   0.70130   0.70511
 Alpha virt. eigenvalues --    0.71100   0.72354   0.73368   0.73617   0.74389
 Alpha virt. eigenvalues --    0.75193   0.76442   0.76555   0.77227   0.77356
 Alpha virt. eigenvalues --    0.77999   0.78425   0.79326   0.80086   0.80103
 Alpha virt. eigenvalues --    0.80883   0.81732   0.82204   0.82782   0.83090
 Alpha virt. eigenvalues --    0.83382   0.83992   0.84240   0.84897   0.85378
 Alpha virt. eigenvalues --    0.85987   0.86698   0.87068   0.87551   0.87943
 Alpha virt. eigenvalues --    0.88118   0.89753   0.90926   0.91072   0.91603
 Alpha virt. eigenvalues --    0.91669   0.93856   0.94675   0.94885   0.95077
 Alpha virt. eigenvalues --    0.95671   0.95710   0.97015   0.97151   0.97474
 Alpha virt. eigenvalues --    0.98374   0.99636   1.00790   1.01893   1.02804
 Alpha virt. eigenvalues --    1.03363   1.03805   1.04281   1.04885   1.07243
 Alpha virt. eigenvalues --    1.07764   1.08678   1.08861   1.09955   1.10218
 Alpha virt. eigenvalues --    1.11695   1.13670   1.15685   1.16187   1.16758
 Alpha virt. eigenvalues --    1.18047   1.19238   1.20170   1.23545   1.23904
 Alpha virt. eigenvalues --    1.24248   1.24580   1.25291   1.25625   1.26245
 Alpha virt. eigenvalues --    1.26707   1.28102   1.28171   1.29062   1.31310
 Alpha virt. eigenvalues --    1.31475   1.32778   1.32978   1.33045   1.33733
 Alpha virt. eigenvalues --    1.34500   1.34888   1.35240   1.35831   1.37016
 Alpha virt. eigenvalues --    1.37759   1.38444   1.39711   1.39891   1.40543
 Alpha virt. eigenvalues --    1.40820   1.41397   1.41742   1.42320   1.43393
 Alpha virt. eigenvalues --    1.44721   1.45917   1.46452   1.46862   1.47221
 Alpha virt. eigenvalues --    1.49168   1.51108   1.53431   1.54459   1.56506
 Alpha virt. eigenvalues --    1.56977   1.57046   1.57578   1.58904   1.59072
 Alpha virt. eigenvalues --    1.60424   1.61140   1.63938   1.64073   1.65067
 Alpha virt. eigenvalues --    1.66286   1.67594   1.69027   1.69916   1.72046
 Alpha virt. eigenvalues --    1.74918   1.75301   1.76885   1.78208   1.79370
 Alpha virt. eigenvalues --    1.79934   1.80869   1.81738   1.82512   1.82843
 Alpha virt. eigenvalues --    1.83195   1.83860   1.85154   1.85559   1.87146
 Alpha virt. eigenvalues --    1.88046   1.88689   1.89362   1.89903   1.90635
 Alpha virt. eigenvalues --    1.91351   1.92575   1.93475   1.93845   1.94762
 Alpha virt. eigenvalues --    1.95293   1.95553   1.96439   1.97135   1.97821
 Alpha virt. eigenvalues --    1.98331   1.99400   2.00115   2.01351   2.02226
 Alpha virt. eigenvalues --    2.02788   2.03318   2.03743   2.04155   2.04801
 Alpha virt. eigenvalues --    2.05135   2.05489   2.05947   2.06443   2.07015
 Alpha virt. eigenvalues --    2.07414   2.07660   2.09453   2.09797   2.10329
 Alpha virt. eigenvalues --    2.10378   2.10791   2.11397   2.12845   2.13052
 Alpha virt. eigenvalues --    2.13269   2.13770   2.14515   2.14637   2.15151
 Alpha virt. eigenvalues --    2.15200   2.15477   2.16656   2.17530   2.17998
 Alpha virt. eigenvalues --    2.18307   2.18937   2.20906   2.21926   2.22261
 Alpha virt. eigenvalues --    2.22724   2.23158   2.23864   2.24782   2.25430
 Alpha virt. eigenvalues --    2.25696   2.26790   2.28504   2.28639   2.28910
 Alpha virt. eigenvalues --    2.29225   2.30442   2.30644   2.31513   2.34902
 Alpha virt. eigenvalues --    2.35127   2.35506   2.39068   2.39848   2.40731
 Alpha virt. eigenvalues --    2.43694   2.43979   2.46185   2.46331   2.50189
 Alpha virt. eigenvalues --    2.52085   2.52958   2.53902   2.55858   2.56692
 Alpha virt. eigenvalues --    2.57157   2.57396   2.59678   2.61416   2.61671
 Alpha virt. eigenvalues --    2.63769   2.65521   2.68397   2.69496   2.71508
 Alpha virt. eigenvalues --    2.73692   2.74946   2.75965   2.76174   2.76876
 Alpha virt. eigenvalues --    2.77899   2.79621   2.81664   2.82067   2.83504
 Alpha virt. eigenvalues --    2.86399   2.90824   2.94257   2.96401   2.99257
 Alpha virt. eigenvalues --    3.01410   3.07944   3.20757   3.21871   3.23059
 Alpha virt. eigenvalues --    3.33137   3.34973   3.91188   4.03024   4.03646
 Alpha virt. eigenvalues --    4.04492   4.05516   4.06555   4.07737   4.09542
 Alpha virt. eigenvalues --    4.11166   4.11539   4.13933   4.14802   4.17042
 Alpha virt. eigenvalues --    4.22363   4.22812   4.26495   4.27859   4.30313
 Alpha virt. eigenvalues --    4.31542   4.33831   4.34958   4.35449   4.41930
 Alpha virt. eigenvalues --    4.44238   4.50686   4.64378   4.78879   4.87192
 Alpha virt. eigenvalues --    4.91948   4.97201   5.67183   8.03107  74.00748
          Condensed to atoms (all electrons):
 Mulliken charges:
               1
     1  C   -0.148056
     2  C   -0.170599
     3  C    0.036567
     4  C    0.128533
     5  C   -0.252992
     6  C    0.259935
     7  C    0.132043
     8  C    0.046276
     9  C   -0.177818
    10  H    0.179058
    11  C   -0.127428
    12  C    0.250804
    13  C   -0.254716
    14  H    0.168454
    15  H    0.185712
    16  H    0.188035
    17  H    0.181327
    18  H    0.228077
    19  N   -0.370427
    20  N   -0.444220
    21  P    1.414394
    22  C   -0.057099
    23  C   -0.281578
    24  C   -0.094926
    25  S    0.312604
    26  C   -0.108332
    27  H    0.157596
    28  C   -0.337280
    29  H    0.161642
    30  H    0.194004
    31  C   -0.317554
    32  H    0.223124
    33  H    0.100715
    34  H    0.141764
    35  C   -0.326205
    36  H    0.096067
    37  H    0.232887
    38  H    0.145151
    39  C   -0.314687
    40  H    0.134688
    41  H    0.180269
    42  H    0.169754
    43  C   -0.314586
    44  H    0.170175
    45  H    0.179552
    46  H    0.134132
    47  F   -0.381717
    48  F   -0.382692
    49  F   -0.377298
    50  F   -0.387655
    51  F   -0.388738
    52  F   -0.390400
    53  Se   0.273662
 Sum of Mulliken charges =  -0.00000
 Mulliken charges with hydrogens summed into heavy atoms:
               1
     1  C    0.020398
     2  C    0.015113
     3  C    0.036567
     4  C    0.128533
     5  C   -0.064957
     6  C    0.259935
     7  C    0.132043
     8  C    0.046276
     9  C    0.001240
    11  C    0.053899
    12  C    0.250804
    13  C   -0.026639
    19  N   -0.370427
    20  N   -0.444220
    21  P    1.414394
    22  C   -0.057099
    23  C   -0.281578
    24  C    0.062670
    25  S    0.312604
    26  C    0.053310
    28  C   -0.143275
    31  C    0.148050
    35  C    0.147900
    39  C    0.170024
    43  C    0.169273
    47  F   -0.381717
    48  F   -0.382692
    49  F   -0.377298
    50  F   -0.387655
    51  F   -0.388738
    52  F   -0.390400
    53  Se   0.273662
 Electronic spatial extent (au):  <R**2>=          23872.0290
 Charge=             -0.0000 electrons
 Dipole moment (field-independent basis, Debye):
    X=             31.5553    Y=              5.8218    Z=              0.6506  Tot=             32.0944
 Quadrupole moment (field-independent basis, Debye-Ang):
   XX=           -291.8172   YY=           -182.9474   ZZ=           -204.2141
   XY=            -35.1808   XZ=              2.2841   YZ=              1.5693
 Traceless Quadrupole moment (field-independent basis, Debye-Ang):
   XX=            -65.4910   YY=             43.3788   ZZ=             22.1121
   XY=            -35.1808   XZ=              2.2841   YZ=              1.5693
 Octapole moment (field-independent basis, Debye-Ang**2):
  XXX=            964.2140  YYY=             -0.5237  ZZZ=              2.9353  XYY=            102.5823
  XXY=            106.5501  XXZ=              5.8021  XZZ=            -28.7035  YZZ=            -20.5087
  YYZ=              2.7590  XYZ=              4.6151
 Hexadecapole moment (field-independent basis, Debye-Ang**3):
 XXXX=         -25396.1556 YYYY=          -6308.3037 ZZZZ=           -878.7631 XXXY=          -1323.3175
 XXXZ=              7.5789 YYYX=            220.6686 YYYZ=            -12.7392 ZZZX=             16.4565
 ZZZY=             18.2060 XXYY=          -4150.0825 XXZZ=          -3777.7809 YYZZ=          -1213.0485
 XXYZ=              7.8409 YYXZ=              7.4735 ZZXY=             22.4449
 N-N= 4.479354820114D+03 E-N=-2.000938725771D+04  KE= 4.638312816049D+03
 Calling FoFJK, ICntrl=      2127 FMM=F ISym2X=0 I1Cent= 0 IOpClX= 0 NMat=1 NMatS=1 NMatT=0.
 ***** Axes restored to original set *****
 -------------------------------------------------------------------
 Center     Atomic                   Forces (Hartrees/Bohr)
 Number     Number              X              Y              Z
 -------------------------------------------------------------------
      1        6           0.002526498   -0.007918819   -0.000037309
      2        6           0.007868428   -0.010330456   -0.000098600
      3        6          -0.007315712   -0.034229354   -0.000103368
      4        6          -0.299518537   -0.555037618    0.001450202
      5        6          -0.014831180    0.004400394   -0.000164813
      6        6          -0.023491244   -0.001616027    0.000175119
      7        6           0.632815062   -0.003781116    0.002880381
      8        6           0.036241132   -0.012373585    0.000215478
      9        6           0.003069821   -0.014691610   -0.000264540
     10        1          -0.005012360    0.009682741    0.000235287
     11        6           0.003260490   -0.007006286    0.000170866
     12        6           0.027301620    0.030511930    0.000488460
     13        6          -0.007292541    0.013645110   -0.000262775
     14        1           0.007797569    0.007626451   -0.000143120
     15        1          -0.006475166    0.009168993    0.000388831
     16        1           0.002343195   -0.009499908    0.000122046
     17        1          -0.010517176   -0.001915955   -0.000055377
     18        1           0.009611221   -0.004261248    0.000420289
     19        7          -0.000743437   -0.045179854   -0.003006936
     20        7           0.022079798    0.008995017    0.000165329
     21       15          -0.017985402    0.025824939    0.000654401
     22        6           0.019160826   -0.032611883   -0.002467153
     23        6          -0.024274977    0.040306687    0.034501998
     24        6           0.004607294   -0.008397040    0.003986710
     25       16          -0.003566491    0.006599230   -0.050118328
     26        6          -0.002513526    0.004234047    0.003779170
     27        1          -0.000374565    0.000987845   -0.005749344
     28        6           0.016580679   -0.028704587    0.022370791
     29        1          -0.001077291    0.002103928   -0.005437996
     30        1          -0.002802516    0.004933251   -0.001436400
     31        6          -0.015850382    0.001320056    0.013047815
     32        1           0.002423703    0.014309857    0.000295372
     33        1           0.022300251   -0.014042295   -0.004201420
     34        1          -0.008179695   -0.002864089   -0.014933374
     35        6          -0.014751253   -0.000756026   -0.011240712
     36        1           0.021245876   -0.015723376    0.004442746
     37        1           0.002296284    0.010813521    0.000252218
     38        1          -0.008866553   -0.002007621    0.014569820
     39        6           0.006282971    0.013656111    0.014277409
     40        1           0.000216987   -0.023595554   -0.004480613
     41        1          -0.016844396    0.002393565   -0.002109157
     42        1           0.005704227    0.005534299   -0.014240435
     43        6           0.006565824    0.014222139   -0.014483218
     44        1           0.005202015    0.006209169    0.014235829
     45        1          -0.016891775    0.001783127    0.001433570
     46        1           0.000909770   -0.023491454    0.005034485
     47        9          -0.018952130    0.012958661    0.002909150
     48        9          -0.003077740   -0.000215837   -0.000220058
     49        9           0.002603426   -0.000929582   -0.000103403
     50        9           0.012476182    0.004513254   -0.002648348
     51        9           0.002308921   -0.004127523    0.003446680
     52        9           0.002535398   -0.004371092   -0.003969275
     53       34          -0.357129422    0.612945475   -0.003974379
 -------------------------------------------------------------------
 Cartesian Forces:  Max     0.632815062 RMS     0.091393437

 GradGradGradGradGradGradGradGradGradGradGradGradGradGradGradGradGradGrad
 Berny optimization.
 FormGI is forming the generalized inverse of G from B-inverse, IUseBI=4.
 Internal  Forces:  Max     0.617472795 RMS     0.055895249
 Search for a local minimum.
 Step number   1 out of a maximum of  289
 All quantities printed in internal units (Hartrees-Bohrs-Radians)
 Mixed Optimization -- RFO/linear search
 Second derivative matrix not updated -- first step.
 ITU=  0
     Eigenvalues ---    0.00230   0.00237   0.00499   0.00766   0.00766
     Eigenvalues ---    0.00766   0.00766   0.00766   0.00766   0.01407
     Eigenvalues ---    0.01529   0.01694   0.01694   0.01778   0.01797
     Eigenvalues ---    0.01910   0.01934   0.01943   0.02016   0.02040
     Eigenvalues ---    0.02044   0.02051   0.02097   0.02119   0.02119
     Eigenvalues ---    0.02144   0.02215   0.02255   0.02293   0.02295
     Eigenvalues ---    0.02295   0.02325   0.02751   0.02760   0.03110
     Eigenvalues ---    0.03454   0.03454   0.04676   0.06154   0.06336
     Eigenvalues ---    0.07062   0.07537   0.07537   0.07537   0.07537
     Eigenvalues ---    0.07537   0.07537   0.11090   0.11651   0.11651
     Eigenvalues ---    0.13823   0.13876   0.13876   0.13876   0.13876
     Eigenvalues ---    0.16000   0.16000   0.16000   0.16000   0.16000
     Eigenvalues ---    0.16000   0.16000   0.16000   0.16000   0.16000
     Eigenvalues ---    0.16000   0.16000   0.16000   0.16000   0.16000
     Eigenvalues ---    0.16000   0.16000   0.16000   0.16000   0.16000
     Eigenvalues ---    0.16276   0.16276   0.17820   0.17820   0.20550
     Eigenvalues ---    0.22141   0.22395   0.22422   0.23508   0.23516
     Eigenvalues ---    0.23856   0.24605   0.24628   0.25000   0.25000
     Eigenvalues ---    0.25000   0.25000   0.25000   0.25000   0.25000
     Eigenvalues ---    0.25000   0.25000   0.25000   0.28519   0.33629
     Eigenvalues ---    0.33629   0.33632   0.33632   0.33681   0.33683
     Eigenvalues ---    0.34641   0.34642   0.35021   0.35740   0.35740
     Eigenvalues ---    0.35740   0.35740   0.35740   0.35740   0.35995
     Eigenvalues ---    0.37230   0.37230   0.37230   0.37230   0.37230
     Eigenvalues ---    0.37230   0.37230   0.37230   0.37230   0.37230
     Eigenvalues ---    0.37230   0.37230   0.37478   0.37651   0.38377
     Eigenvalues ---    0.38622   0.38646   0.40213   0.40259   0.40751
     Eigenvalues ---    0.41175   0.41414   0.43948   0.45326   0.45828
     Eigenvalues ---    0.45828   0.45828   0.45828   0.45828   0.45828
     Eigenvalues ---    0.46435   0.49231   0.49859   0.49873   0.51311
     Eigenvalues ---    0.51347   1.01530   1.05348
 RFO step:  Lambda=-5.77920204D-01 EMin= 2.30000000D-03
 Linear search not attempted -- first point.
 Maximum step size (   0.300) exceeded in Quadratic search.
    -- Step size scaled by   0.485
 Iteration  1 RMS(Cart)=  0.13087858 RMS(Int)=  0.00315296
 Iteration  2 RMS(Cart)=  0.00634041 RMS(Int)=  0.00012802
 Iteration  3 RMS(Cart)=  0.00003036 RMS(Int)=  0.00012777
 Iteration  4 RMS(Cart)=  0.00000000 RMS(Int)=  0.00012777
 Variable       Old X    -DE/DX   Delta X   Delta X   Delta X     New X
                                 (Linear)    (Quad)   (Total)
    R1        2.57876   0.00338   0.00000   0.00077   0.00075   2.57952
    R2        2.69438   0.00641   0.00000   0.00324   0.00325   2.69763
    R3        2.07869  -0.01055   0.00000  -0.00559  -0.00559   2.07310
    R4        2.70768   0.00280   0.00000   0.00045   0.00042   2.70810
    R5        2.07956  -0.01120   0.00000  -0.00594  -0.00594   2.07362
    R6        2.70000   0.03258   0.00000   0.01586   0.01583   2.71583
    R7        2.64391   0.05981   0.00000   0.01646   0.01604   2.65995
    R8        2.70768   0.00906   0.00000   0.00528   0.00531   2.71298
    R9        2.64390   0.61747   0.00000   0.18798   0.18838   2.83228
   R10        2.57875  -0.00579   0.00000  -0.00173  -0.00170   2.57705
   R11        2.07956  -0.00941   0.00000  -0.00499  -0.00499   2.07457
   R12        2.77790  -0.01341   0.00000  -0.00695  -0.00695   2.77095
   R13        2.69991   0.03543   0.00000   0.01721   0.01719   2.71710
   R14        2.70759   0.00396   0.00000   0.00274   0.00277   2.71036
   R15        2.64399   0.61476   0.00000   0.18720   0.18761   2.83160
   R16        2.70761   0.00123   0.00000  -0.00032  -0.00035   2.70726
   R17        2.64397   0.06016   0.00000   0.01662   0.01620   2.66017
   R18        2.07960  -0.01089   0.00000  -0.00578  -0.00578   2.07382
   R19        2.57881   0.00616   0.00000   0.00202   0.00200   2.58081
   R20        2.69428   0.00696   0.00000   0.00354   0.00355   2.69783
   R21        2.07872  -0.01057   0.00000  -0.00561  -0.00561   2.07311
   R22        2.57884  -0.00334   0.00000  -0.00065  -0.00062   2.57822
   R23        2.77790  -0.02796   0.00000  -0.01450  -0.01450   2.76340
   R24        2.07961  -0.00862   0.00000  -0.00457  -0.00457   2.07504
   R25        2.77790   0.00506   0.00000   0.00263   0.00263   2.78052
   R26        2.77790  -0.00378   0.00000  -0.00196  -0.00196   2.77594
   R27        2.77790   0.00779   0.00000   0.00404   0.00404   2.78194
   R28        2.77790   0.00704   0.00000   0.00365   0.00365   2.78155
   R29        3.08025  -0.00353   0.00000  -0.00165  -0.00165   3.07860
   R30        3.08025   0.00269   0.00000   0.00126   0.00126   3.08151
   R31        3.08025   0.00028   0.00000   0.00013   0.00013   3.08039
   R32        3.08025   0.04190   0.00000   0.01961   0.01961   3.09986
   R33        3.08025   0.00339   0.00000   0.00159   0.00159   3.08184
   R34        3.08025   0.00403   0.00000   0.00189   0.00189   3.08214
   R35        2.91018  -0.02582   0.00000  -0.01451  -0.01451   2.89567
   R36        2.60258   0.00208   0.00000   0.00090   0.00089   2.60347
   R37        3.15994   0.03445   0.00000   0.01742   0.01743   3.17737
   R38        2.70631  -0.00271   0.00000  -0.00161  -0.00162   2.70469
   R39        2.06260  -0.00509   0.00000  -0.00267  -0.00267   2.05993
   R40        3.16005   0.02932   0.00000   0.01479   0.01479   3.17484
   R41        2.60252  -0.00124   0.00000  -0.00070  -0.00071   2.60181
   R42        2.06262  -0.00543   0.00000  -0.00285  -0.00285   2.05977
   R43        2.05641  -0.00432   0.00000  -0.00226  -0.00226   2.05415
   R44        2.02201   0.01416   0.00000   0.00723   0.00723   2.02923
   R45        2.02201   0.02556   0.00000   0.01304   0.01304   2.03505
   R46        2.02201   0.01707   0.00000   0.00871   0.00871   2.03072
   R47        2.02201   0.02588   0.00000   0.01321   0.01321   2.03522
   R48        2.02201   0.03461   0.00000   0.01766   0.01766   2.03967
   R49        2.02201   0.01704   0.00000   0.00870   0.00870   2.03070
   R50        3.68669   0.03142   0.00000   0.02439   0.02439   3.71108
   R51        2.02201   0.02268   0.00000   0.01157   0.01157   2.03358
   R52        2.02201   0.01713   0.00000   0.00874   0.00874   2.03075
   R53        2.02201   0.01605   0.00000   0.00819   0.00819   2.03020
   R54        2.02201   0.01617   0.00000   0.00825   0.00825   2.03026
   R55        2.02201   0.01704   0.00000   0.00870   0.00870   2.03070
   R56        2.02201   0.02267   0.00000   0.01157   0.01157   2.03358
    A1        2.10219   0.00703   0.00000   0.00290   0.00287   2.10506
    A2        2.11114  -0.00639   0.00000  -0.00334  -0.00332   2.10782
    A3        2.06985  -0.00064   0.00000   0.00044   0.00045   2.07031
    A4        2.10772   0.00997   0.00000   0.00340   0.00333   2.11105
    A5        2.11455  -0.00581   0.00000  -0.00225  -0.00221   2.11234
    A6        2.06091  -0.00415   0.00000  -0.00116  -0.00112   2.05979
    A7        2.07328  -0.02182   0.00000  -0.00583  -0.00563   2.06765
    A8        2.12408  -0.03421   0.00000  -0.01046  -0.01017   2.11390
    A9        2.08583   0.05603   0.00000   0.01629   0.01580   2.10163
   A10        2.07322   0.00893   0.00000  -0.00062  -0.00079   2.07243
   A11        2.08592  -0.01829   0.00000   0.00158   0.00192   2.08784
   A12        2.12404   0.00936   0.00000  -0.00096  -0.00113   2.12291
   A13        2.10775   0.00180   0.00000   0.00279   0.00283   2.11058
   A14        2.06081   0.00189   0.00000   0.00043   0.00041   2.06123
   A15        2.11463  -0.00368   0.00000  -0.00323  -0.00325   2.11138
   A16        2.10221  -0.00590   0.00000  -0.00265  -0.00262   2.09959
   A17        2.06931   0.01911   0.00000   0.01079   0.01078   2.08009
   A18        2.11167  -0.01321   0.00000  -0.00814  -0.00816   2.10351
   A19        2.07336   0.01116   0.00000   0.00064   0.00047   2.07383
   A20        2.08584  -0.01837   0.00000   0.00153   0.00187   2.08771
   A21        2.12399   0.00721   0.00000  -0.00217  -0.00234   2.12165
   A22        2.07314  -0.02189   0.00000  -0.00587  -0.00567   2.06747
   A23        2.08592   0.05539   0.00000   0.01589   0.01541   2.10133
   A24        2.12413  -0.03350   0.00000  -0.01002  -0.00974   2.11439
   A25        2.06079  -0.00377   0.00000  -0.00096  -0.00093   2.05986
   A26        2.10779   0.00848   0.00000   0.00254   0.00247   2.11026
   A27        2.11460  -0.00471   0.00000  -0.00158  -0.00155   2.11306
   A28        2.10223   0.00737   0.00000   0.00317   0.00315   2.10538
   A29        2.11138  -0.00532   0.00000  -0.00266  -0.00265   2.10873
   A30        2.06958  -0.00205   0.00000  -0.00051  -0.00050   2.06908
   A31        2.10211  -0.00553   0.00000  -0.00240  -0.00237   2.09975
   A32        2.06962   0.02866   0.00000   0.01637   0.01635   2.08597
   A33        2.11145  -0.02314   0.00000  -0.01397  -0.01399   2.09747
   A34        2.10773   0.00040   0.00000   0.00191   0.00195   2.10969
   A35        2.06076   0.00606   0.00000   0.00316   0.00314   2.06390
   A36        2.11469  -0.00646   0.00000  -0.00507  -0.00509   2.10960
   A37        1.91063   0.00119   0.00000   0.00124   0.00122   1.91185
   A38        1.91063   0.00361   0.00000   0.00282   0.00281   1.91344
   A39        1.91063   0.00482   0.00000   0.00353   0.00353   1.91416
   A40        1.91063   0.00223   0.00000   0.00180   0.00179   1.91242
   A41        1.91063   0.00225   0.00000   0.00181   0.00180   1.91244
   A42        1.91063   0.00264   0.00000   0.00202   0.00202   1.91265
   A43        1.57080  -0.01861   0.00000  -0.01081  -0.01081   1.55998
   A44        1.57080   0.03583   0.00000   0.02247   0.02247   1.59326
   A45        1.57080  -0.00366   0.00000  -0.00248  -0.00246   1.56833
   A46        1.57080   0.00022   0.00000   0.00008   0.00009   1.57089
   A47        1.57080   0.00329   0.00000   0.00045   0.00045   1.57124
   A48        1.57080   0.00315   0.00000   0.00215   0.00215   1.57295
   A49        1.57080   0.00302   0.00000   0.00203   0.00202   1.57282
   A50        1.57080  -0.02050   0.00000  -0.01210  -0.01210   1.55870
   A51        1.57080   0.00178   0.00000   0.00116   0.00117   1.57197
   A52        1.57080   0.00166   0.00000   0.00124   0.00125   1.57204
   A53        1.57080  -0.00268   0.00000  -0.00183  -0.00181   1.56899
   A54        1.57080  -0.00349   0.00000  -0.00235  -0.00234   1.56846
   A55        2.11143   0.10740   0.00000   0.03108   0.03015   2.14159
   A56        2.08585  -0.05413   0.00000  -0.01579  -0.01533   2.07053
   A57        2.08590  -0.05327   0.00000  -0.01529  -0.01483   2.07107
   A58        2.19350   0.00329   0.00000   0.00186   0.00186   2.19536
   A59        2.14259  -0.00232   0.00000  -0.00142  -0.00142   2.14117
   A60        1.94710  -0.00097   0.00000  -0.00044  -0.00044   1.94666
   A61        1.94642   0.00494   0.00000   0.00254   0.00253   1.94895
   A62        2.18794  -0.00543   0.00000  -0.00321  -0.00321   2.18473
   A63        2.14883   0.00049   0.00000   0.00067   0.00068   2.14950
   A64        1.63773  -0.01102   0.00000  -0.00570  -0.00569   1.63204
   A65        1.94647   0.00547   0.00000   0.00273   0.00272   1.94919
   A66        2.14883  -0.00028   0.00000   0.00025   0.00025   2.14908
   A67        2.18789  -0.00519   0.00000  -0.00298  -0.00297   2.18491
   A68        1.94706   0.00158   0.00000   0.00087   0.00088   1.94794
   A69        2.14249  -0.00485   0.00000  -0.00310  -0.00310   2.13939
   A70        2.19363   0.00327   0.00000   0.00223   0.00223   2.19586
   A71        1.91063  -0.00747   0.00000  -0.00501  -0.00501   1.90563
   A72        1.91063   0.01256   0.00000   0.00838   0.00838   1.91901
   A73        1.91063   0.00121   0.00000   0.00077   0.00076   1.91140
   A74        1.91063  -0.00179   0.00000  -0.00113  -0.00112   1.90951
   A75        1.91063  -0.00049   0.00000  -0.00057  -0.00057   1.91006
   A76        1.91063  -0.00401   0.00000  -0.00244  -0.00245   1.90818
   A77        1.91063  -0.01343   0.00000  -0.00906  -0.00903   1.90160
   A78        1.91063   0.02858   0.00000   0.01910   0.01909   1.92972
   A79        1.91063   0.00647   0.00000   0.00489   0.00488   1.91551
   A80        1.91063  -0.00913   0.00000  -0.00632  -0.00629   1.90434
   A81        1.91063  -0.00022   0.00000  -0.00078  -0.00080   1.90983
   A82        1.91063  -0.01226   0.00000  -0.00783  -0.00792   1.90271
   A83        2.18070   0.09100   0.00000   0.05330   0.05330   2.23400
   A84        1.91063   0.01187   0.00000   0.00789   0.00789   1.91852
   A85        1.91063  -0.00267   0.00000  -0.00183  -0.00183   1.90880
   A86        1.91063   0.00090   0.00000   0.00058   0.00057   1.91121
   A87        1.91063  -0.00427   0.00000  -0.00278  -0.00278   1.90785
   A88        1.91063  -0.00398   0.00000  -0.00245  -0.00246   1.90817
   A89        1.91063  -0.00185   0.00000  -0.00140  -0.00140   1.90923
   A90        1.91063   0.00068   0.00000   0.00044   0.00043   1.91106
   A91        1.91063  -0.00294   0.00000  -0.00202  -0.00202   1.90862
   A92        1.91063   0.01209   0.00000   0.00804   0.00804   1.91867
   A93        1.91063  -0.00167   0.00000  -0.00129  -0.00129   1.90934
   A94        1.91063  -0.00387   0.00000  -0.00237  -0.00238   1.90825
   A95        1.91063  -0.00429   0.00000  -0.00280  -0.00280   1.90783
   A96        2.18175   0.07546   0.00000   0.04959   0.04959   2.23134
   A97        2.11143  -0.18216   0.00000  -0.06637  -0.06516   2.04627
   A98        3.14159  -0.01532   0.00000  -0.01037  -0.01037   3.13122
   A99        3.14159   0.01722   0.00000   0.01165   0.01165   3.15324
   A100       3.14159  -0.00344   0.00000  -0.00240  -0.00237   3.13922
   A101       3.14159  -0.00189   0.00000  -0.00132  -0.00132   3.14027
   A102       3.14159  -0.00047   0.00000  -0.00032  -0.00031   3.14128
   A103       3.14159   0.00618   0.00000   0.00418   0.00420   3.14579
    D1        0.00280  -0.00004   0.00000  -0.00004  -0.00004   0.00276
    D2        3.14110  -0.00015   0.00000  -0.00012  -0.00012   3.14097
    D3       -3.13904  -0.00005   0.00000  -0.00005  -0.00005  -3.13910
    D4       -0.00075  -0.00016   0.00000  -0.00014  -0.00014  -0.00088
    D5        0.00002  -0.00001   0.00000  -0.00002  -0.00002   0.00001
    D6        3.14001  -0.00001   0.00000  -0.00001  -0.00001   3.13999
    D7       -3.14132   0.00000   0.00000  -0.00001  -0.00001  -3.14133
    D8       -0.00134   0.00000   0.00000  -0.00000  -0.00000  -0.00134
    D9       -0.00441   0.00017   0.00000   0.00013   0.00013  -0.00428
   D10        3.13748   0.00004   0.00000   0.00005   0.00005   3.13753
   D11        3.14038   0.00029   0.00000   0.00021   0.00021   3.14060
   D12       -0.00091   0.00015   0.00000   0.00014   0.00014  -0.00078
   D13        0.00321  -0.00016   0.00000  -0.00013  -0.00013   0.00308
   D14       -3.14024  -0.00006   0.00000  -0.00006  -0.00006  -3.14030
   D15       -3.13867  -0.00004   0.00000  -0.00006  -0.00006  -3.13873
   D16        0.00106   0.00006   0.00000   0.00001   0.00001   0.00108
   D17       -3.14077   0.00023   0.00000   0.00017   0.00017  -3.14060
   D18        0.00082   0.00001   0.00000   0.00003   0.00003   0.00085
   D19        0.00112   0.00011   0.00000   0.00010   0.00010   0.00121
   D20       -3.14048  -0.00011   0.00000  -0.00004  -0.00004  -3.14052
   D21       -0.00049   0.00004   0.00000   0.00005   0.00005  -0.00044
   D22       -3.14124   0.00001   0.00000   0.00002   0.00002  -3.14122
   D23       -3.14018  -0.00003   0.00000  -0.00003  -0.00003  -3.14021
   D24        0.00225  -0.00006   0.00000  -0.00006  -0.00006   0.00219
   D25       -0.00169   0.00002   0.00000  -0.00004  -0.00004  -0.00172
   D26        3.13799   0.00012   0.00000   0.00004   0.00004   3.13803
   D27       -0.00117   0.00003   0.00000   0.00002   0.00002  -0.00116
   D28       -3.14112  -0.00000   0.00000  -0.00001  -0.00001  -3.14112
   D29        3.13955   0.00006   0.00000   0.00005   0.00005   3.13960
   D30       -0.00039   0.00003   0.00000   0.00003   0.00003  -0.00036
   D31       -1.04639  -0.00284   0.00000  -0.00223  -0.00223  -1.04862
   D32        1.04801   0.00313   0.00000   0.00246   0.00246   1.05047
   D33        2.09359  -0.00284   0.00000  -0.00222  -0.00222   2.09137
   D34       -2.09520   0.00314   0.00000   0.00247   0.00247  -2.09273
   D35       -0.00007   0.00006   0.00000   0.00007   0.00007  -0.00001
   D36       -3.14079  -0.00002   0.00000  -0.00000  -0.00001  -3.14079
   D37       -3.14046  -0.00002   0.00000   0.00004   0.00004  -3.14042
   D38        0.00201  -0.00010   0.00000  -0.00003  -0.00003   0.00198
   D39       -0.00033  -0.00003   0.00000  -0.00004  -0.00004  -0.00037
   D40        3.14106   0.00012   0.00000   0.00010   0.00010   3.14116
   D41        3.14003   0.00003   0.00000  -0.00001  -0.00001   3.14003
   D42       -0.00176   0.00018   0.00000   0.00012   0.00012  -0.00164
   D43        0.00016   0.00007   0.00000   0.00007   0.00007   0.00022
   D44       -3.14020  -0.00002   0.00000   0.00004   0.00004  -3.14016
   D45        3.14064  -0.00020   0.00000  -0.00017  -0.00017   3.14048
   D46        0.00113  -0.00001   0.00000  -0.00003  -0.00003   0.00111
   D47       -0.00185  -0.00008   0.00000  -0.00008  -0.00008  -0.00193
   D48       -3.14136   0.00011   0.00000   0.00006   0.00006  -3.14130
   D49       -0.00265  -0.00028   0.00000  -0.00014  -0.00013  -0.00278
   D50        3.13895  -0.00006   0.00000   0.00000   0.00001   3.13895
   D51        3.13985  -0.00037   0.00000  -0.00021  -0.00021   3.13964
   D52       -0.00174  -0.00015   0.00000  -0.00007  -0.00007  -0.00181
   D53       -0.00178  -0.00007   0.00000  -0.00005  -0.00005  -0.00183
   D54        3.14084  -0.00006   0.00000  -0.00004  -0.00004   3.14080
   D55       -3.14122   0.00012   0.00000   0.00009   0.00009  -3.14113
   D56        0.00140   0.00013   0.00000   0.00010   0.00010   0.00150
   D57        0.00136   0.00009   0.00000   0.00008   0.00008   0.00144
   D58        3.14159   0.00000   0.00000   0.00001   0.00001  -3.14158
   D59       -3.14123   0.00008   0.00000   0.00007   0.00007  -3.14116
   D60       -0.00100  -0.00001   0.00000  -0.00000  -0.00000  -0.00100
   D61       -0.00029  -0.00004   0.00000  -0.00003  -0.00003  -0.00032
   D62        3.14151  -0.00019   0.00000  -0.00017  -0.00017   3.14134
   D63       -3.14049   0.00000   0.00000   0.00001   0.00001  -3.14047
   D64        0.00132  -0.00015   0.00000  -0.00012  -0.00012   0.00119
   D65        1.05069   0.00423   0.00000   0.00325   0.00325   1.05394
   D66       -1.04370  -0.00461   0.00000  -0.00356  -0.00356  -1.04727
   D67       -2.09227   0.00416   0.00000   0.00319   0.00319  -2.08908
   D68        2.09652  -0.00468   0.00000  -0.00363  -0.00363   2.09289
   D69        2.87657  -0.00523   0.00000  -0.00401  -0.00401   2.87257
   D70       -1.31222  -0.00431   0.00000  -0.00333  -0.00334  -1.31556
   D71        0.78218  -0.00079   0.00000  -0.00072  -0.00072   0.78146
   D72       -1.31222   0.00287   0.00000   0.00236   0.00237  -1.30985
   D73        0.78218   0.00379   0.00000   0.00305   0.00304   0.78522
   D74        2.87657   0.00731   0.00000   0.00566   0.00566   2.88224
   D75        1.24897   0.00479   0.00000   0.00401   0.00402   1.25299
   D76       -2.93982   0.00287   0.00000   0.00242   0.00237  -2.93746
   D77       -0.84543   0.00932   0.00000   0.00752   0.00757  -0.83786
   D78       -0.84543  -0.00184   0.00000  -0.00140  -0.00139  -0.84682
   D79        1.24897  -0.00375   0.00000  -0.00299  -0.00304   1.24592
   D80       -2.93982   0.00270   0.00000   0.00212   0.00215  -2.93767
   D81        1.31043   0.00287   0.00000   0.00220   0.00221   1.31264
   D82       -2.87836   0.00328   0.00000   0.00251   0.00251  -2.87585
   D83       -0.78397  -0.00007   0.00000   0.00002   0.00002  -0.78394
   D84       -0.78397  -0.00287   0.00000  -0.00235  -0.00235  -0.78632
   D85        1.31043  -0.00246   0.00000  -0.00205  -0.00205   1.30838
   D86       -2.87836  -0.00581   0.00000  -0.00453  -0.00454  -2.88290
   D87        0.84789  -0.00008   0.00000  -0.00016  -0.00016   0.84773
   D88        2.94228  -0.00352   0.00000  -0.00271  -0.00271   2.93958
   D89       -1.24651  -0.00316   0.00000  -0.00245  -0.00245  -1.24896
   D90        2.94228   0.00564   0.00000   0.00439   0.00440   2.94668
   D91       -1.24651   0.00221   0.00000   0.00184   0.00184  -1.24466
   D92        0.84789   0.00256   0.00000   0.00210   0.00210   0.84999
   D93       -0.75013   0.00407   0.00000   0.00307   0.00307  -0.74706
   D94        2.39147   0.00219   0.00000   0.00176   0.00176   2.39322
   D95        0.82067   0.00041   0.00000   0.00060   0.00056   0.82124
   D96       -2.32092   0.00385   0.00000   0.00300   0.00303  -2.31789
   D97       -1.57073   0.00004   0.00000   0.00001   0.00001  -1.57072
   D98        1.57080   0.00013   0.00000   0.00009   0.00009   1.57088
   D99        1.57087  -0.00018   0.00000  -0.00013  -0.00012   1.57074
   D100      -1.57080  -0.00008   0.00000  -0.00005  -0.00005  -1.57085
   D101       3.14101   0.00010   0.00000   0.00008   0.00008   3.14109
   D102      -0.00029  -0.00004   0.00000  -0.00003  -0.00003  -0.00033
   D103      -0.00052   0.00002   0.00000   0.00001   0.00001  -0.00050
   D104       3.14136  -0.00013   0.00000  -0.00010  -0.00010   3.14126
   D105      -3.14132  -0.00006   0.00000  -0.00005  -0.00005  -3.14136
   D106       0.00022   0.00002   0.00000   0.00002   0.00002   0.00023
   D107       0.00063  -0.00006   0.00000  -0.00005  -0.00005   0.00059
   D108      -3.14097  -0.00011   0.00000  -0.00009  -0.00009  -3.14106
   D109      -3.14124   0.00008   0.00000   0.00007   0.00007  -3.14117
   D110       0.00035   0.00003   0.00000   0.00002   0.00002   0.00037
   D111       0.00015  -0.00006   0.00000  -0.00005  -0.00005   0.00011
   D112      -3.14137   0.00007   0.00000   0.00006   0.00006  -3.14131
[...]
     36          1           0       -4.962488    3.512775    0.009596
     37          1           0       -4.132203    2.221796   -0.886232
     38          1           0       -4.172678    2.175724    0.873728
     39          6           0        4.688800   -4.902665    0.064339
     40          1           0        5.198350   -4.589322    0.984620
     41          1           0        4.700812   -5.992128    0.027195
     42          1           0        5.260978   -4.528384   -0.794048
     43          6           0        2.225916   -5.422999   -0.026911
     44          1           0        1.617487   -5.296485   -0.931046
     45          1           0        2.653929   -6.425460   -0.042009
     46          1           0        1.566317   -5.344822    0.846381
     47          9           0       -3.171409   -0.687424    1.131909
     48          9           0       -4.964154   -2.158024    1.084894
     49          9           0       -4.931895   -2.112149   -1.240960
     50          9           0       -3.139123   -0.641881   -1.181347
     51          9           0       -5.076446   -0.124511   -0.040530
     52          9           0       -3.002373   -2.658712   -0.061674
     53         34           0       -0.442998   -0.882941    0.008570
 ---------------------------------------------------------------------
 Rotational constants (GHZ):           0.1285754           0.0814675           0.0519901

 **********************************************************************

            Population analysis using the SCF Density.

 **********************************************************************

 Orbital symmetries:
       Occupied  (A) (A) (A) (A) (A) (A) (A) (A) (A) (A) (A) (A)
                 (A) (A) (A) (A) (A) (A) (A) (A) (A) (A) (A) (A)
                 (A) (A) (A) (A) (A) (A) (A) (A) (A) (A) (A) (A)
                 (A) (A) (A) (A) (A) (A) (A) (A) (A) (A) (A) (A)
                 (A) (A) (A) (A) (A) (A) (A) (A) (A) (A) (A) (A)
                 (A) (A) (A) (A) (A) (A) (A) (A) (A) (A) (A) (A)
                 (A) (A) (A) (A) (A) (A) (A) (A) (A) (A) (A) (A)
                 (A) (A) (A) (A) (A) (A) (A) (A) (A) (A) (A) (A)
                 (A) (A) (A) (A) (A) (A) (A) (A) (A) (A) (A) (A)
                 (A) (A) (A) (A) (A) (A) (A) (A) (A) (A) (A) (A)
                 (A) (A) (A) (A) (A) (A) (A) (A) (A) (A) (A) (A)
                 (A) (A) (A) (A) (A) (A) (A) (A)
       Virtual   (A) (A) (A) (A) (A) (A) (A) (A) (A) (A) (A) (A)
                 (A) (A) (A) (A) (A) (A) (A) (A) (A) (A) (A) (A)
                 (A) (A) (A) (A) (A) (A) (A) (A) (A) (A) (A) (A)
                 (A) (A) (A) (A) (A) (A) (A) (A) (A) (A) (A) (A)
                 (A) (A) (A) (A) (A) (A) (A) (A) (A) (A) (A) (A)
                 (A) (A) (A) (A) (A) (A) (A) (A) (A) (A) (A) (A)
                 (A) (A) (A) (A) (A) (A) (A) (A) (A) (A) (A) (A)
                 (A) (A) (A) (A) (A) (A) (A) (A) (A) (A) (A) (A)
                 (A) (A) (A) (A) (A) (A) (A) (A) (A) (A) (A) (A)
                 (A) (A) (A) (A) (A) (A) (A) (A) (A) (A) (A) (A)
                 (A) (A) (A) (A) (A) (A) (A) (A) (A) (A) (A) (A)
                 (A) (A) (A) (A) (A) (A) (A) (A) (A) (A) (A) (A)
                 (A) (A) (A) (A) (A) (A) (A) (A) (A) (A) (A) (A)
                 (A) (A) (A) (A) (A) (A) (A) (A) (A) (A) (A) (A)
                 (A) (A) (A) (A) (A) (A) (A) (A) (A) (A) (A) (A)
                 (A) (A) (A) (A) (A) (A) (A) (A) (A) (A) (A) (A)
                 (A) (A) (A) (A) (A) (A) (A) (A) (A) (A) (A) (A)
                 (A) (A) (A) (A) (A) (A) (A) (A) (A) (A) (A) (A)
                 (A) (A) (A) (A) (A) (A) (A) (A) (A) (A) (A) (A)
                 (A) (A) (A) (A) (A) (A) (A) (A) (A) (A) (A) (A)
                 (A) (A) (A) (A) (A) (A) (A) (A) (A) (A) (A) (A)
                 (A) (A) (A) (A) (A) (A) (A) (A) (A) (A) (A) (A)
                 (A) (A) (A) (A) (A) (A) (A) (A) (A) (A) (A) (A)
                 (A) (A) (A) (A) (A) (A) (A) (A) (A) (A) (A) (A)
                 (A) (A) (A) (A) (A) (A) (A) (A) (A) (A) (A) (A)
                 (A) (A) (A) (A) (A) (A) (A) (A) (A) (A) (A) (A)
                 (A) (A) (A) (A) (A) (A) (A) (A) (A) (A) (A) (A)
                 (A) (A) (A) (A) (A) (A) (A) (A) (A) (A) (A) (A)
                 (A) (A) (A) (A) (A) (A) (A) (A) (A) (A) (A) (A)
                 (A) (A) (A) (A) (A) (A) (A) (A) (A) (A) (A) (A)
                 (A) (A) (A) (A) (A) (A) (A) (A) (A) (A) (A) (A)
                 (A) (A) (A) (A) (A) (A) (A) (A) (A) (A) (A) (A)
                 (A) (A) (A) (A) (A) (A) (A) (A) (A) (A) (A) (A)
                 (A) (A) (A) (A) (A) (A) (A) (A) (A)
 The electronic state is 1-A.
 Alpha  occ. eigenvalues -- -453.89327 -88.93268 -77.27119 -57.49060 -52.17329
 Alpha  occ. eigenvalues --  -52.17184 -52.16875 -24.61179 -24.61165 -24.60708
 Alpha  occ. eigenvalues --  -24.60702 -24.60458 -24.60452 -14.39846 -14.39146
 Alpha  occ. eigenvalues --  -10.26932 -10.26128 -10.26025 -10.25214 -10.25023
 Alpha  occ. eigenvalues --  -10.24932 -10.24651 -10.24444 -10.24104 -10.23781
 Alpha  occ. eigenvalues --  -10.23400 -10.23342 -10.22339 -10.22091 -10.21856
 Alpha  occ. eigenvalues --  -10.21791 -10.21683 -10.21551 -10.21522 -10.21159
 Alpha  occ. eigenvalues --  -10.19258  -7.99318  -7.74291  -6.69123  -5.95734
 Alpha  occ. eigenvalues --   -5.95354  -5.95022  -5.78726  -5.78252  -5.77711
 Alpha  occ. eigenvalues --   -4.85673  -4.85663  -4.85660  -2.14337  -2.14301
 Alpha  occ. eigenvalues --   -2.13786  -2.13407  -2.13361  -1.18007  -1.10578
 Alpha  occ. eigenvalues --   -1.10486  -1.10407  -1.07413  -1.07317  -0.98768
 Alpha  occ. eigenvalues --   -0.97816  -0.91517  -0.89279  -0.87368  -0.82773
 Alpha  occ. eigenvalues --   -0.81291  -0.78362  -0.77591  -0.76349  -0.75671
 Alpha  occ. eigenvalues --   -0.75282  -0.74062  -0.72574  -0.70183  -0.69437
 Alpha  occ. eigenvalues --   -0.65045  -0.63230  -0.62475  -0.60968  -0.58749
 Alpha  occ. eigenvalues --   -0.58335  -0.57333  -0.55924  -0.55779  -0.54048
 Alpha  occ. eigenvalues --   -0.52976  -0.52227  -0.51020  -0.50004  -0.49716
 Alpha  occ. eigenvalues --   -0.48345  -0.47161  -0.47144  -0.47110  -0.46951
 Alpha  occ. eigenvalues --   -0.46662  -0.45624  -0.45386  -0.44536  -0.44043
 Alpha  occ. eigenvalues --   -0.43943  -0.43556  -0.42951  -0.42517  -0.42186
 Alpha  occ. eigenvalues --   -0.41909  -0.41411  -0.40862  -0.40718  -0.40603
 Alpha  occ. eigenvalues --   -0.39976  -0.39474  -0.39295  -0.39178  -0.39006
 Alpha  occ. eigenvalues --   -0.38683  -0.37840  -0.36917  -0.36711  -0.36619
 Alpha  occ. eigenvalues --   -0.35110  -0.34830  -0.33944  -0.32533  -0.32346
 Alpha  occ. eigenvalues --   -0.32233  -0.32075  -0.31923  -0.31690  -0.31540
 Alpha  occ. eigenvalues --   -0.30524  -0.28924  -0.28559  -0.28506  -0.28437
 Alpha  occ. eigenvalues --   -0.27442  -0.26302  -0.25662  -0.22068  -0.21249
 Alpha virt. eigenvalues --   -0.11517  -0.03818  -0.03602  -0.02189  -0.01392
 Alpha virt. eigenvalues --    0.00677   0.01856   0.03457   0.04342   0.06067
 Alpha virt. eigenvalues --    0.07229   0.08013   0.08149   0.08476   0.09360
 Alpha virt. eigenvalues --    0.09550   0.10214   0.11294   0.12182   0.12980
 Alpha virt. eigenvalues --    0.13328   0.13846   0.14306   0.14356   0.14549
 Alpha virt. eigenvalues --    0.14739   0.15163   0.15212   0.15342   0.15887
 Alpha virt. eigenvalues --    0.16265   0.16494   0.16663   0.17995   0.18373
 Alpha virt. eigenvalues --    0.18763   0.19363   0.21626   0.22517   0.22647
 Alpha virt. eigenvalues --    0.23551   0.24378   0.24820   0.25639   0.27088
 Alpha virt. eigenvalues --    0.27939   0.28468   0.29432   0.30255   0.30403
 Alpha virt. eigenvalues --    0.30760   0.30864   0.31908   0.32217   0.32835
 Alpha virt. eigenvalues --    0.34203   0.35662   0.37531   0.37803   0.38324
 Alpha virt. eigenvalues --    0.39592   0.39896   0.40827   0.41246   0.41330
 Alpha virt. eigenvalues --    0.42106   0.43610   0.43809   0.44673   0.45390
 Alpha virt. eigenvalues --    0.46043   0.46434   0.46738   0.47499   0.47767
 Alpha virt. eigenvalues --    0.47991   0.48215   0.49958   0.50193   0.50606
 Alpha virt. eigenvalues --    0.50885   0.51646   0.52070   0.52320   0.53321
 Alpha virt. eigenvalues --    0.53652   0.54148   0.54390   0.55246   0.55462
 Alpha virt. eigenvalues --    0.56051   0.56628   0.56825   0.57331   0.58019
 Alpha virt. eigenvalues --    0.58648   0.59536   0.59707   0.59821   0.61051
 Alpha virt. eigenvalues --    0.61821   0.63731   0.64074   0.64738   0.64824
 Alpha virt. eigenvalues --    0.65274   0.65302   0.65652   0.66769   0.66974
 Alpha virt. eigenvalues --    0.67534   0.68406   0.68950   0.70683   0.71096
 Alpha virt. eigenvalues --    0.72151   0.72443   0.72648   0.73251   0.75381
 Alpha virt. eigenvalues --    0.77203   0.78014   0.78453   0.78656   0.79040
 Alpha virt. eigenvalues --    0.79622   0.79901   0.80149   0.80601   0.81495
 Alpha virt. eigenvalues --    0.81952   0.82255   0.82653   0.83369   0.83966
 Alpha virt. eigenvalues --    0.84411   0.84907   0.85869   0.86170   0.86734
 Alpha virt. eigenvalues --    0.86933   0.87580   0.87706   0.88315   0.89314
 Alpha virt. eigenvalues --    0.89860   0.90771   0.91238   0.91744   0.92389
 Alpha virt. eigenvalues --    0.92720   0.93489   0.93834   0.95025   0.95363
 Alpha virt. eigenvalues --    0.96229   0.97349   0.97743   0.98401   0.98977
 Alpha virt. eigenvalues --    0.99379   1.00068   1.01007   1.02824   1.03337
 Alpha virt. eigenvalues --    1.03612   1.03890   1.04070   1.05686   1.06674
 Alpha virt. eigenvalues --    1.08560   1.09469   1.12003   1.12256   1.14943
 Alpha virt. eigenvalues --    1.15455   1.16175   1.17924   1.18249   1.19112
 Alpha virt. eigenvalues --    1.21049   1.21421   1.21846   1.22010   1.22208
 Alpha virt. eigenvalues --    1.23247   1.23744   1.25150   1.25584   1.25799
 Alpha virt. eigenvalues --    1.27013   1.27171   1.28972   1.30092   1.30340
 Alpha virt. eigenvalues --    1.30779   1.31653   1.32349   1.32593   1.33937
 Alpha virt. eigenvalues --    1.34926   1.34993   1.36529   1.36823   1.37981
 Alpha virt. eigenvalues --    1.38859   1.39509   1.40189   1.41843   1.42765
 Alpha virt. eigenvalues --    1.43490   1.45535   1.45794   1.46338   1.46689
 Alpha virt. eigenvalues --    1.46884   1.47832   1.48591   1.49006   1.49526
 Alpha virt. eigenvalues --    1.51669   1.51871   1.52643   1.53886   1.54039
 Alpha virt. eigenvalues --    1.54764   1.56462   1.57081   1.58527   1.59506
 Alpha virt. eigenvalues --    1.60149   1.61717   1.62108   1.62591   1.64463
 Alpha virt. eigenvalues --    1.67084   1.68529   1.70563   1.73182   1.74413
 Alpha virt. eigenvalues --    1.75175   1.75488   1.78360   1.79192   1.79495
 Alpha virt. eigenvalues --    1.79663   1.80681   1.81793   1.82091   1.83200
 Alpha virt. eigenvalues --    1.83640   1.85257   1.86440   1.86835   1.87828
 Alpha virt. eigenvalues --    1.88054   1.88482   1.89398   1.89711   1.91133
 Alpha virt. eigenvalues --    1.91496   1.91956   1.93882   1.93942   1.94163
 Alpha virt. eigenvalues --    1.94810   1.95410   1.95687   1.96661   1.97221
 Alpha virt. eigenvalues --    1.97760   1.98532   1.99661   1.99904   2.00612
 Alpha virt. eigenvalues --    2.01035   2.01581   2.02170   2.02389   2.02828
 Alpha virt. eigenvalues --    2.03819   2.04779   2.05512   2.05604   2.05807
 Alpha virt. eigenvalues --    2.06507   2.07974   2.08198   2.08499   2.09202
 Alpha virt. eigenvalues --    2.09526   2.10188   2.10349   2.10543   2.10609
 Alpha virt. eigenvalues --    2.11429   2.12237   2.12465   2.12898   2.13130
 Alpha virt. eigenvalues --    2.15407   2.16004   2.16385   2.17354   2.18107
 Alpha virt. eigenvalues --    2.18573   2.18788   2.20078   2.21141   2.21933
 Alpha virt. eigenvalues --    2.22699   2.23479   2.24452   2.24658   2.25430
 Alpha virt. eigenvalues --    2.25628   2.27611   2.28718   2.28797   2.30190
 Alpha virt. eigenvalues --    2.30332   2.31420   2.31727   2.32172   2.33595
 Alpha virt. eigenvalues --    2.34382   2.35003   2.38063   2.41653   2.41928
 Alpha virt. eigenvalues --    2.43988   2.44654   2.50211   2.50871   2.51862
 Alpha virt. eigenvalues --    2.52583   2.52867   2.54293   2.55215   2.56360
 Alpha virt. eigenvalues --    2.57569   2.58835   2.60762   2.62497   2.64925
 Alpha virt. eigenvalues --    2.66560   2.68040   2.68822   2.69335   2.70550
 Alpha virt. eigenvalues --    2.71181   2.72158   2.74337   2.78940   2.80045
 Alpha virt. eigenvalues --    2.81808   2.84786   2.86871   2.86961   2.89109
 Alpha virt. eigenvalues --    2.90809   2.92690   2.96997   3.03437   3.04391
 Alpha virt. eigenvalues --    3.12299   3.15115   3.15295   3.20331   3.26719
 Alpha virt. eigenvalues --    3.37206   3.38355   3.92015   4.00183   4.00547
 Alpha virt. eigenvalues --    4.01119   4.05960   4.06243   4.06454   4.09005
 Alpha virt. eigenvalues --    4.09613   4.10877   4.12567   4.14577   4.15535
 Alpha virt. eigenvalues --    4.18437   4.24151   4.24610   4.26673   4.30722
 Alpha virt. eigenvalues --    4.31791   4.33511   4.34671   4.38570   4.40605
 Alpha virt. eigenvalues --    4.45964   4.55077   4.68354   4.77048   4.79339
 Alpha virt. eigenvalues --    4.85469   4.91753   5.87514   8.06371  73.28866
          Condensed to atoms (all electrons):
 Mulliken charges:
               1
     1  C   -0.189623
     2  C   -0.171215
     3  C    0.112500
     4  C   -0.009123
     5  C   -0.277671
     6  C    0.411171
     7  C   -0.057246
     8  C    0.120731
     9  C   -0.173241
    10  H    0.166417
    11  C   -0.178567
    12  C    0.401902
    13  C   -0.256740
    14  H    0.143185
    15  H    0.167511
    16  H    0.168170
    17  H    0.143715
    18  H    0.230446
    19  N   -0.476260
    20  N   -0.476530
    21  P    1.477135
    22  C    0.000606
    23  C   -0.302804
    24  C   -0.085351
    25  S    0.279401
    26  C   -0.101195
    27  H    0.155138
    28  C   -0.338119
    29  H    0.152135
    30  H    0.182266
    31  C   -0.321849
    32  H    0.177065
    33  H    0.172210
    34  H    0.172854
    35  C   -0.346598
    36  H    0.160064
    37  H    0.213722
    38  H    0.214941
    39  C   -0.321221
    40  H    0.173432
    41  H    0.172329
    42  H    0.174289
    43  C   -0.327549
    44  H    0.185104
    45  H    0.169427
    46  H    0.184880
    47  F   -0.414365
    48  F   -0.350031
    49  F   -0.349964
    50  F   -0.413916
    51  F   -0.388791
    52  F   -0.386790
    53  Se   0.232010
 Sum of Mulliken charges =  -0.00000
 Mulliken charges with hydrogens summed into heavy atoms:
               1
     1  C   -0.046438
     2  C   -0.003703
     3  C    0.112500
     4  C   -0.009123
     5  C   -0.109501
     6  C    0.411171
     7  C   -0.057246
     8  C    0.120731
     9  C   -0.006823
    11  C   -0.034853
    12  C    0.401902
    13  C   -0.026294
    19  N   -0.476260
    20  N   -0.476530
    21  P    1.477135
    22  C    0.000606
    23  C   -0.302804
    24  C    0.069787
    25  S    0.279401
    26  C    0.050940
    28  C   -0.155853
    31  C    0.200281
    35  C    0.242129
    39  C    0.198829
    43  C    0.211862
    47  F   -0.414365
    48  F   -0.350031
    49  F   -0.349964
    50  F   -0.413916
    51  F   -0.388791
    52  F   -0.386790
    53  Se   0.232010
 Electronic spatial extent (au):  <R**2>=          19152.1595
 Charge=             -0.0000 electrons
 Dipole moment (field-independent basis, Debye):
    X=             16.3534    Y=              5.5321    Z=              0.9638  Tot=             17.2907
 Quadrupole moment (field-independent basis, Debye-Ang):
   XX=           -217.1561   YY=           -147.4083   ZZ=           -212.1388
   XY=            -50.4644   XZ=              1.7084   YZ=              1.6644
 Traceless Quadrupole moment (field-independent basis, Debye-Ang):
   XX=            -24.9217   YY=             44.8261   ZZ=            -19.9044
   XY=            -50.4644   XZ=              1.7084   YZ=              1.6644
 Octapole moment (field-independent basis, Debye-Ang**2):
  XXX=            207.6557  YYY=           -117.7854  ZZZ=              1.5207  XYY=             62.2403
  XXY=            109.1328  XXZ=             10.0926  XZZ=            -39.1706  YZZ=            -16.3679
  YYZ=              3.4825  XYZ=              2.9227
 Hexadecapole moment (field-independent basis, Debye-Ang**3):
 XXXX=         -13865.1075 YYYY=          -7947.7750 ZZZZ=           -636.2248 XXXY=           -508.1031
 XXXZ=             -3.2099 YYYX=           -770.1753 YYYZ=             11.8288 ZZZX=             18.9274
 ZZZY=             11.0630 XXYY=          -3077.9530 XXZZ=          -2439.8798 YYZZ=          -1744.4735
 XXYZ=             -7.5885 YYXZ=             -4.5479 ZZXY=             95.7353
 N-N= 4.593318258459D+03 E-N=-2.023941751746D+04  KE= 4.634572956016D+03
 Unable to Open any file for archive entry.
 1\1\GINC-BHD0001\FOpt\RB3LYP\6-31G(d)\C21H21F6N2P1S1Se1\BWEIGHT\05-Jan
 -2023\0\\# OPT B3LYP/6-31G*\\Title Card Required\\0,1\C,-0.4271827711,
 0.2451743733,-0.3277800517\C,0.9405824129,0.2313766265,-0.3475666751\C
 ,1.7327041507,1.412117623,-0.1940958174\C,1.0103181759,2.6333134953,-0
 .0071184362\C,-0.3841828976,2.6435200995,0.0113110228\C,-1.144237141,1
 .4705117345,-0.1487636726\C,3.6174880945,3.7876945602,0.1360466707\C,4
 .0392566014,2.4265595109,-0.0723491243\C,5.4606834124,2.2228496856,-0.
 1147340421\H,5.8308073837,1.215607754,-0.2602960488\C,6.3635561558,3.2
 374739415,0.0287413263\C,5.9209611307,4.5868591513,0.2325822791\C,4.53
 09475644,4.8168382238,0.2804532821\H,-0.962120221,-0.6884622377,-0.448
 4921344\H,1.44620437,-0.717449687,-0.4776144047\H,-0.8847019381,3.5939
 312317,0.1551509265\H,7.4214952125,3.0081713944,-0.0125885826\H,4.1526
 508269,5.8144375047,0.4327786461\N,6.7938949385,5.6150494025,0.3772862
 254\N,-2.5098307658,1.4942368014,-0.1324892204\P,2.1251855116,7.918790
 2868,0.8114096052\C,3.155632224,1.3337808471,-0.2281141393\C,3.7587434
 048,-0.01219973,-0.4493969984\C,4.1302125436,-0.9412171209,0.488618736
 \S,4.0829020695,-0.6076288874,-2.0651459004\C,4.6762142655,-2.13424735
 77,-0.0782522273\H,4.0158943107,-0.7736598755,1.5543840897\C,4.7141142
 278,-2.0999886308,-1.4436476326\H,5.0242008459,-2.9761928303,0.5101286
 295\H,5.075670445,-2.8581626689,-2.125604107\C,8.2327020333,5.38420522
 24,0.3248634503\H,8.7477289106,6.3355437071,0.4563800445\H,8.562529447
 1,4.7056121203,1.1219492447\H,8.5390375637,4.9620223452,-0.6406861355\
 C,6.2861560104,6.9783589526,0.5877558121\H,7.1337796583,7.6568892121,0
 .6836256717\H,5.6614646166,7.3068552365,-0.2481860753\H,5.6754528614,7
 .0432883046,1.4929508996\C,-3.2756570648,0.2643420807,-0.2981441001\H,
 -3.0625356293,-0.457239272,0.5010073423\H,-4.3391233792,0.5014831589,-
 0.2626992527\H,-3.0676995693,-0.2148903847,-1.2632308341\C,-3.21632169
 69,2.7572999484,0.057538776\H,-2.9783633735,3.4730786141,-0.7391339214
 \H,-4.2904860031,2.5723801799,0.0394919576\H,-2.9636202769,3.217166371
 2,1.0211192002\F,2.6669891537,6.6736650857,1.7746259105\F,1.6487547737
 ,8.727444359,2.1267649818\F,1.620564867,9.0994455871,-0.1696591374\F,2
 .6388248848,7.0434778809,-0.5093874177\F,3.6208920263,8.5831852069,0.9
 002946166\F,0.6771112161,7.161604255,0.7062210822\Se,1.8160171357,4.30
 09360862,0.2285527801\\Version=ES64L-G16RevC.01\State=1-A\HF=-4660.500
 9654\RMSD=8.014e-09\RMSF=1.675e-05\Dipole=0.6437897,-6.7190817,-0.8461
 438\Quadrupole=47.4141676,-31.3042773,-16.1098903,21.633867,3.054567,-
 5.1158834\PG=C01 [X(C21H21F6N2P1S1Se1)]\\@
 The archive entry for this job was punched.


 In the race for quality, there is no finish line.
                               -- David T. Kearns
 Job cpu time:       0 days 21 hours 14 minutes 55.5 seconds.
 Elapsed time:       0 days  5 hours 19 minutes 15.1 seconds.
 File lengths (MBytes):  RWF=    416 Int=      0 D2E=      0 Chk=     48 Scr=     32
 Normal termination of Gaussian 16 at Thu Jan  5 06:24:43 2023.
