 Entering Gaussian System, Link 0=g16
 Initial command:
 /software/gaussian/g16-c01/avx/g16/l1.exe "/gpfs/fs2/scratch/bweight/software/SQD/src/NAMD/TEST_POP_FULL/G16/DIMER/Gau-22439.inp" -scrdir="/gpfs/fs2/scratch/bweight/software/SQD/src/NAMD/TEST_POP_FULL/G16/DIMER/"
 Entering Link 1 = /software/gaussian/g16-c01/avx/g16/l1.exe PID=     22440.
  
 Copyright (c) 1988-2019, Gaussian, Inc.  All Rights Reserved.
  
 This is part of the Gaussian(R) 16 program.  It is based on
 the Gaussian(R) 09 system (copyright 2009, Gaussian, Inc.),
 the Gaussian(R) 03 system (copyright 2003, Gaussian, Inc.),
 the Gaussian(R) 98 system (copyright 1998, Gaussian, Inc.),
 the Gaussian(R) 94 system (copyright 1995, Gaussian, Inc.),
 the Gaussian 92(TM) system (copyright 1992, Gaussian, Inc.),
 the Gaussian 90(TM) system (copyright 1990, Gaussian, Inc.),
 the Gaussian 88(TM) system (copyright 1988, Gaussian, Inc.),
 the Gaussian 86(TM) system (copyright 1986, Carnegie Mellon
 University), and the Gaussian 82(TM) system (copyright 1983,
 Carnegie Mellon University). Gaussian is a federally registered
 trademark of Gaussian, Inc.
  
 This software contains proprietary and confidential information,
 including trade secrets, belonging to Gaussian, Inc.
  
 This software is provided under written license and may be
 used, copied, transmitted, or stored only in accord with that
 written license.
  
 The following legend is applicable only to US Government
 contracts under FAR:
  
                    RESTRICTED RIGHTS LEGEND
  
 Use, reproduction and disclosure by the US Government is
 subject to restrictions as set forth in subparagraphs (a)
 and (c) of the Commercial Computer Software - Restricted
 Rights clause in FAR 52.227-19.
  
 Gaussian, Inc.
 340 Quinnipiac St., Bldg. 40, Wallingford CT 06492
  
  
 ---------------------------------------------------------------
 Warning -- This program may not be used in any manner that
 competes with the business of Gaussian, Inc. or will provide
 assistance to any competitor of Gaussian, Inc.  The licensee
 of this program is prohibited from giving any competitor of
 Gaussian, Inc. access to this program.  By using this program,
 the user acknowledges that Gaussian, Inc. is engaged in the
 business of creating and licensing software in the field of
 computational chemistry and represents and warrants to the
 licensee that it is not a competitor of Gaussian, Inc. and that
 it will not use this program in any manner prohibited above.
 ---------------------------------------------------------------
  

 Cite this work as:
 Gaussian 16, Revision C.01,
 M. J. Frisch, G. W. Trucks, H. B. Schlegel, G. E. Scuseria, 
 M. A. Robb, J. R. Cheeseman, G. Scalmani, V. Barone, 
 G. A. Petersson, H. Nakatsuji, X. Li, M. Caricato, A. V. Marenich, 
 J. Bloino, B. G. Janesko, R. Gomperts, B. Mennucci, H. P. Hratchian, 
 J. V. Ortiz, A. F. Izmaylov, J. L. Sonnenberg, D. Williams-Young, 
 F. Ding, F. Lipparini, F. Egidi, J. Goings, B. Peng, A. Petrone, 
 T. Henderson, D. Ranasinghe, V. G. Zakrzewski, J. Gao, N. Rega, 
 G. Zheng, W. Liang, M. Hada, M. Ehara, K. Toyota, R. Fukuda, 
 J. Hasegawa, M. Ishida, T. Nakajima, Y. Honda, O. Kitao, H. Nakai, 
 T. Vreven, K. Throssell, J. A. Montgomery, Jr., J. E. Peralta, 
 F. Ogliaro, M. J. Bearpark, J. J. Heyd, E. N. Brothers, K. N. Kudin, 
 V. N. Staroverov, T. A. Keith, R. Kobayashi, J. Normand, 
 K. Raghavachari, A. P. Rendell, J. C. Burant, S. S. Iyengar, 
 J. Tomasi, M. Cossi, J. M. Millam, M. Klene, C. Adamo, R. Cammi, 
 J. W. Ochterski, R. L. Martin, K. Morokuma, O. Farkas, 
 J. B. Foresman, and D. J. Fox, Gaussian, Inc., Wallingford CT, 2019.
 
 ******************************************
 Gaussian 16:  ES64L-G16RevC.01  3-Jul-2019
                 2-Feb-2023 
 ******************************************
 %chk=geometry.chk
 %nprocshared=12
 Will use up to   12 processors via shared memory.
 %mem=30GB
 ----------------------------------------------------------------
 # AM1/STO-5G IOp(3/41=2000) nosymm iop(2/12=3,3/33=1) guess=only
 ----------------------------------------------------------------
 1/38=1,172=1/1;
 2/12=3,15=1,17=6,18=5,40=1/2;
 3/5=2,6=5,25=1,33=1,41=2000,89=1/1,2;
 4/35=1/1;
 6/7=3,28=1/1;
 99/5=2/99;
 ---------
 MD Step 4
 ---------
 Symbolic Z-matrix:
 Charge =  0 Multiplicity = 1
 C                    -1.03749  -1.17193   0.00173 
 C                     0.31491  -1.13813   0.00275 
 C                     1.00844   0.00028  -0.00156 
 C                     0.31475   1.13843  -0.0024 
 C                    -1.03761   1.17191  -0.00082 
 C                    -1.74509  -0.00001   0.0006 
 H                    -1.6732   -2.05366   0.00397 
 H                     0.7752   -2.1061    0.00521 
 H                     0.77491   2.10642  -0.00293 
 H                    -1.67367   2.05326  -0.00007 
 N                     2.34544   0.00018  -0.00492 
 C                     3.09795  -1.23123  -0.00051 
 H                     4.14094  -1.02744  -0.00183 
 H                     2.8363   -1.83312   0.86181 
 H                     2.83545  -1.83861  -0.85932 
 C                     3.09873   1.23083   0.00472 
 H                     4.14149   1.02662  -0.01478 
 H                     2.82406   1.84701  -0.84455 
 H                     2.84967   1.8248    0.87607 
 C                    -3.20213  -0.0003    0.00007 
 N                    -4.32533   0.00001  -0.00071 
 C                    -1.03614  -1.17411   0.00172 
 C                     0.31486  -1.14153   0.00277 
 C                     1.01318   0.00026  -0.00156 
 C                     0.31471   1.14183  -0.00237 
 C                    -1.03625   1.1741   -0.00079 
 C                    -1.74277  -0.00001   0.00054 
 H                    -1.6721   -2.0623    0.00384 
 H                     0.77449  -2.11945   0.00531 
 H                     0.77426   2.11978  -0.0028 
 H                    -1.67267   2.06186  -0.00009 
 N                     2.34529   0.00017  -0.00498 
 C                     3.09362  -1.23123  -0.00046 
 H                     4.14507  -1.0242   -0.00186 
 H                     2.82193  -1.83005   0.87741 
 H                     2.82105  -1.83564  -0.87467 
 C                     3.09438   1.23083   0.0047 
 H                     4.14564   1.02347  -0.01494 
 H                     2.80931   1.84422  -0.85998 
 H                     2.8356    1.82164   0.89165 
 C                    -3.20505  -0.00028   0. 
 N                    -4.32004   0.00001  -0.00064 
 
                          Input orientation:                          
 ---------------------------------------------------------------------
 Center     Atomic      Atomic             Coordinates (Angstroms)
 Number     Number       Type             X           Y           Z
 ---------------------------------------------------------------------
      1          6           0       -1.037488   -1.171934    0.001729
      2          6           0        0.314912   -1.138130    0.002746
      3          6           0        1.008436    0.000276   -0.001556
      4          6           0        0.314748    1.138433   -0.002400
      5          6           0       -1.037611    1.171905   -0.000820
      6          6           0       -1.745088   -0.000009    0.000598
      7          1           0       -1.673196   -2.053663    0.003968
      8          1           0        0.775204   -2.106096    0.005207
      9          1           0        0.774912    2.106416   -0.002931
     10          1           0       -1.673671    2.053258   -0.000074
     11          7           0        2.345442    0.000178   -0.004920
     12          6           0        3.097952   -1.231232   -0.000507
     13          1           0        4.140938   -1.027442   -0.001831
     14          1           0        2.836296   -1.833119    0.861807
     15          1           0        2.835454   -1.838612   -0.859321
     16          6           0        3.098731    1.230832    0.004717
     17          1           0        4.141492    1.026616   -0.014784
     18          1           0        2.824061    1.847010   -0.844548
     19          1           0        2.849667    1.824804    0.876069
     20          6           0       -3.202133   -0.000295    0.000073
     21          7           0       -4.325332    0.000014   -0.000705
     22          6           0       -1.036137   -1.174108    0.001721
     23          6           0        0.314859   -1.141532    0.002769
     24          6           0        1.013182    0.000263   -0.001558
     25          6           0        0.314711    1.141829   -0.002374
     26          6           0       -1.036254    1.174096   -0.000794
     27          6           0       -1.742767   -0.000013    0.000543
     28          1           0       -1.672097   -2.062299    0.003837
     29          1           0        0.774492   -2.119452    0.005312
     30          1           0        0.774259    2.119775   -0.002802
     31          1           0       -1.672674    2.061859   -0.000088
     32          7           0        2.345293    0.000167   -0.004983
     33          6           0        3.093618   -1.231226   -0.000460
     34          1           0        4.145072   -1.024204   -0.001864
     35          1           0        2.821934   -1.830046    0.877406
     36          1           0        2.821053   -1.835644   -0.874674
     37          6           0        3.094381    1.230826    0.004699
     38          1           0        4.145645    1.023474   -0.014943
     39          1           0        2.809311    1.844220   -0.859979
     40          1           0        2.835603    1.821638    0.891652
     41          6           0       -3.205052   -0.000284    0.000002
     42          7           0       -4.320044    0.000009   -0.000635
 ---------------------------------------------------------------------
                    Distance matrix (angstroms):
                    1          2          3          4          5
     1  C    0.000000
     2  C    1.352823   0.000000
     3  C    2.357942   1.333028   0.000000
     4  C    2.677004   2.276569   1.332893   0.000000
     5  C    2.343840   2.676863   2.357759   1.352775   0.000000
     6  C    1.368980   2.353492   2.753524   2.353504   1.368907
     7  H    1.087004   2.188784   3.377846   3.760510   3.287595
     8  H    2.039246   1.071836   2.119256   3.277048   3.745881
     9  H    3.745983   3.276997   2.119047   1.071793   2.039253
    10  H    3.287338   3.760244   3.377638   2.188772   1.086902
    11  N    3.580238   2.327844   1.337010   2.327949   3.580225
    12  C    4.135865   2.784598   2.425425   3.655343   4.783090
    13  H    5.180442   3.827629   3.296782   4.396674   5.626233
    14  H    4.022823   2.752884   2.729067   3.991889   4.978097
    15  H    4.023126   2.754445   2.730433   3.993879   4.980047
    16  C    4.783472   3.655357   2.425622   2.785525   4.136766
    17  H    5.626342   4.396493   3.296906   3.828397   5.181159
    18  H    4.974109   3.990589   2.723519   2.740063   4.010007
    19  H    4.985467   3.995830   2.736651   2.769228   4.038087
    20  C    2.461388   3.696523   4.210570   3.696642   2.461546
    21  N    3.490471   4.777787   5.333768   4.777692   3.490334
    22  C    0.002560   1.351528   2.357852   2.678200   2.346015
    23  C    1.352689   0.003402   1.335961   2.279970   2.679772
    24  C    2.362055   1.335492   0.004746   1.335380   2.361885
    25  C    2.679917   2.279965   1.335814   0.003396   1.352657
    26  C    2.346032   2.678069   2.357671   1.351474   0.002578
    27  C    1.367779   2.351459   2.751204   2.351476   1.367713
    28  H    1.093382   2.191414   3.382233   3.767264   3.295856
    29  H    2.044768   1.083611   2.132609   3.290173   3.757232
    30  H    3.757365   3.290134   2.132397   1.083597   2.044832
    31  H    3.295585   3.767020   3.382082   2.191476   1.093308
    32  N    3.580093   2.327709   1.336861   2.327824   3.580088
    33  C    4.131532   2.780267   2.421690   3.652041   4.779340
    34  H    5.184666   3.831856   3.299703   4.398679   5.628774
    35  H    4.011865   2.743891   2.722394   3.983956   4.967805
    36  H    4.012097   2.745384   2.723695   3.985919   4.969734
    37  C    4.779707   3.652042   2.421871   2.781177   4.132416
    38  H    5.628939   4.398563   3.299878   3.832642   5.185400
    39  H    4.963627   3.982554   2.716648   2.730645   3.998622
    40  H    4.975366   3.988015   2.730150   2.760580   4.027462
    41  C    2.463960   3.699304   4.213488   3.699416   2.464108
    42  N    3.485489   4.772650   5.328480   4.772558   3.485356
                    6          7          8          9         10
     6  C    0.000000
     7  H    2.054914   0.000000
     8  H    3.284432   2.448962   0.000000
     9  H    3.284423   4.826959   4.212520   0.000000
    10  H    2.054509   4.106923   4.826722   2.449161   0.000000
    11  N    4.090533   4.513069   2.627192   2.627319   4.513140
    12  C    4.997093   4.841515   2.482051   4.066499   5.792776
    13  H    5.975025   5.904008   3.534361   4.599043   6.580303
    14  H    5.009097   4.595655   2.248640   4.529571   6.015527
    15  H    5.010118   4.595589   2.250241   4.532382   6.018070
    16  C    4.997756   5.793030   4.066186   2.483313   4.842751
    17  H    5.975451   6.580203   4.598498   3.535529   5.905110
    18  H    5.000287   6.013364   4.532874   2.230386   4.580968
    19  H    5.020773   6.021575   4.529214   2.270805   4.613069
    20  C    1.457046   2.560075   4.500404   4.500569   2.559937
    21  N    2.580245   3.354316   5.518260   5.518099   3.353672
    22  C    1.371540   1.086032   2.037049   3.747233   3.289734
    23  C    2.355092   2.187316   1.068788   3.280372   3.763103
    24  C    2.758271   3.381608   2.119771   2.119588   3.381416
    25  C    2.355116   3.763374   3.280416   1.068744   2.187320
    26  C    1.371485   3.290007   3.747143   2.037043   1.085922
    27  C    0.002321   2.054831   3.282649   3.282646   2.054434
    28  H    2.063583   0.008706   2.447693   4.833847   4.115559
    29  H    3.292468   2.448573   0.013375   4.225876   4.837876
    30  H    3.292507   4.838147   4.225879   0.013376   2.448835
    31  H    2.063139   4.115524   4.833630   2.447992   0.008658
    32  N    4.090384   4.512932   2.627095   2.627239   4.513012
    33  C    4.992892   4.837245   2.477998   4.064019   5.789204
    34  H    5.978541   5.908643   3.539287   4.599865   6.582442
    35  H    4.997551   4.584658   2.241883   4.523387   6.005039
    36  H    4.998529   4.584519   2.243397   4.526197   6.007580
    37  C    4.993539   5.789444   4.063697   2.479245   4.838465
    38  H    5.979004   6.582404   4.599401   3.540445   5.909747
    39  H    4.988419   6.002730   4.526714   2.223074   4.569493
    40  H    5.009501   6.011257   4.523066   2.264470   4.602431
    41  C    1.459965   2.561828   4.502989   4.503144   2.561672
    42  N    2.574957   3.350133   5.513371   5.513214   3.349496
                   11         12         13         14         15
    11  N    0.000000
    12  C    1.443142   0.000000
    13  H    2.068772   1.062710   0.000000
    14  H    2.086416   1.083659   1.759851   0.000000
    15  H    2.085968   1.084149   1.759993   1.721137   0.000000
    16  C    1.442930   2.462069   2.487175   3.192377   3.199588
    17  H    2.068687   2.487379   2.054100   3.263439   3.260140
    18  H    2.084428   3.203591   3.272127   4.056494   3.685669
    19  H    2.087977   3.188947   3.251676   3.657975   4.053690
    20  C    5.547577   6.419211   7.414562   6.369023   6.369492
    21  N    6.670775   7.524699   8.528387   7.442662   7.442756
    22  C    3.579674   4.134484   5.179153   4.021166   4.021464
    23  C    2.329555   2.784539   3.827782   2.752069   2.753637
    24  C    1.332264   2.421331   3.292269   2.725882   2.727250
    25  C    2.329644   3.657575   4.398381   3.994436   3.996440
    26  C    3.579660   4.783018   5.625841   4.978360   4.980321
    27  C    4.088213   4.994843   5.972738   5.006983   5.007986
    28  H    4.516028   4.841907   5.904434   4.595024   4.594899
    29  H    2.638336   2.487455   3.539137   2.250912   2.252559
    30  H    2.638430   4.077843   4.608634   4.541467   4.544335
    31  H    4.516171   5.796836   6.583454   6.020343   6.022887
    32  N    0.000000   1.443211   2.068897   2.086468   2.085968
    33  C    1.440882   0.004334   1.066962   1.082587   1.083148
    34  H    2.070757   1.067391   0.005252   1.764416   1.764538
    35  H    2.086927   1.097950   1.776795   0.021425   1.736800
    36  H    2.086365   1.098251   1.776835   1.736550   0.021258
    37  C    1.440659   2.462066   2.488996   3.192021   3.199222
    38  H    2.070740   2.486275   2.050963   3.262393   3.259004
    39  H    2.084897   3.206308   3.279649   4.060554   3.682925
    40  H    2.088496   3.191361   3.258753   3.654879   4.057504
    41  C    5.550496   6.422078   7.417454   6.371803   6.372252
    42  N    6.665487   7.519482   8.523137   7.437565   7.437676
                   16         17         18         19         20
    16  C    0.000000
    17  H    1.062748   0.000000
    18  H    1.084606   1.759880   0.000000
    19  H    1.083555   1.760549   1.720951   0.000000
    20  C    6.420015   7.415092   6.359319   6.381430   0.000000
    21  N    7.525401   8.528846   7.432179   7.455146   1.123199
    22  C    4.783396   5.625948   4.974380   4.985723   2.463611
    23  C    3.657603   4.398214   3.993172   3.998381   3.697521
    24  C    2.421540   3.292399   2.720365   2.733469   4.215316
    25  C    2.785452   3.828535   2.739229   2.768415   3.697654
    26  C    4.135378   5.179864   4.008337   4.036421   2.463783
    27  C    4.995509   5.973166   4.998159   5.018661   1.459366
    28  H    5.797027   6.583279   6.018130   6.026335   2.567661
    29  H    4.077560   4.608127   4.544867   4.541115   4.506041
    30  H    2.488664   3.540254   2.232627   2.273047   4.506263
    31  H    4.843236   5.905630   4.580381   4.612528   2.567436
    32  N    1.443018   2.068822   2.084446   2.088048   5.547428
    33  C    2.462068   2.489195   3.203230   3.188594   6.414957
    34  H    2.485972   2.050864   3.270941   3.250490   7.418208
    35  H    3.194868   3.270742   4.060280   3.654956   6.356657
    36  H    3.202141   3.267338   3.682778   4.057684   6.357079
    37  C    0.004350   1.067015   1.083502   1.082581   6.415744
    38  H    1.067432   0.005211   1.764381   1.765104   7.418771
    39  H    1.098958   1.776946   0.021528   1.736626   6.346605
    40  H    1.097698   1.777367   1.736424   0.021229   6.369349
    41  C    6.422878   7.417981   6.362072   6.384204   0.002920
    42  N    7.520185   8.523597   7.427101   7.450050   1.117911
                   21         22         23         24         25
    21  N    0.000000
    22  C    3.492474   0.000000
    23  C    4.778547   1.351389   0.000000
    24  C    5.338514   2.361963   1.338420   0.000000
    25  C    4.778466   2.681114   2.283366   1.338296   0.000000
    26  C    3.492349   2.348206   2.680980   2.361795   1.351351
    27  C    2.582565   1.370339   2.353061   2.755951   2.353089
    28  H    3.360477   1.092397   2.189934   3.385988   3.770130
    29  H    5.522714   2.042563   1.080554   2.133123   3.293541
    30  H    5.522610   3.758620   3.293509   2.132936   1.080539
    31  H    3.359732   3.297979   3.769881   3.385853   2.190013
    32  N    6.670626   3.579530   2.329420   1.332115   2.329520
    33  C    7.520423   4.130150   2.780208   2.417598   3.654274
    34  H    8.532102   5.183378   3.832012   3.295188   4.400382
    35  H    7.429913   4.010210   2.743076   2.719226   3.986505
    36  H    7.429958   4.010437   2.744577   2.720529   3.988484
    37  C    7.521108   4.779633   3.654289   2.417791   2.781104
    38  H    8.532592   5.628544   4.400282   3.295370   3.832783
    39  H    7.419069   4.963900   3.985140   2.713512   2.729812
    40  H    7.442688   4.975624   3.990568   2.726985   2.759768
    41  C    1.120280   2.466183   3.700301   4.218235   3.700427
    42  N    0.005288   3.487493   4.773411   5.333226   4.773333
                   26         27         28         29         30
    26  C    0.000000
    27  C    1.370290   0.000000
    28  H    3.298268   2.063499   0.000000
    29  H    3.758497   3.290690   2.447257   0.000000
    30  H    2.042614   3.290735   4.845043   4.239235   0.000000
    31  H    1.092315   2.063063   4.124159   4.844792   2.447619
    32  N    3.579523   4.088064   4.515890   2.638239   2.638350
    33  C    4.779270   4.990642   4.837638   2.483410   4.075370
    34  H    5.628380   5.976255   5.909072   3.544069   4.609445
    35  H    4.968070   4.995439   4.584035   2.244175   4.535287
    36  H    4.970011   4.996398   4.583836   2.245736   4.538156
    37  C    4.131028   4.991291   5.793444   4.075077   2.484604
    38  H    5.184107   5.976718   6.585474   4.609020   3.545175
    39  H    3.996953   4.986293   6.007503   4.538713   2.225336
    40  H    4.025797   5.007390   6.016023   4.534971   2.266732
    41  C    2.466345   1.462285   2.569410   4.508622   4.508833
    42  N    3.487371   2.577277   3.356301   5.517830   5.517729
                   31         32         33         34         35
    31  H    0.000000
    32  N    4.516044   0.000000
    33  C    5.793267   1.440951   0.000000
    34  H    6.585586   2.070881   1.071641   0.000000
    35  H    6.009860   2.086978   1.096835   1.781345   0.000000
    36  H    6.012404   2.086363   1.097207   1.781364   1.752088
    37  C    4.838951   1.440746   2.462057   2.487800   3.194493
    38  H    5.910270   2.070875   2.488099   2.047719   3.269721
    39  H    4.568913   2.084913   3.205928   3.278486   4.064345
    40  H    4.601898   2.088567   3.190989   3.257590   3.651738
    41  C    2.569167   5.550347   6.417824   7.421101   6.359436
    42  N    3.355562   6.665338   7.515206   8.526852   7.424817
                   36         37         38         39         40
    36  H    0.000000
    37  C    3.201756   0.000000
    38  H    3.266226   1.071698   0.000000
    39  H    3.679912   1.097810   1.781432   0.000000
    40  H    4.061505   1.096682   1.781907   1.751974   0.000000
    41  C    6.359838   6.418607   7.421661   6.349357   6.372123
    42  N    7.424879   7.515893   8.527343   7.413993   7.437593
                   41         42
    41  C    0.000000
    42  N    1.114992   0.000000
 Symmetry turned off by external request.
 Stoichiometry    C18H20N4
 Framework group  C1[X(C18H20N4)]
 Deg. of freedom   120
 Full point group                 C1      NOp   1
 Rotational constants (GHZ):           1.8465754           0.2988254           0.2588049
 Standard basis: VSTO-5G (5D, 7F)
                         Coordinates in L301:                         
 ---------------------------------------------------------------------
 Center     Atomic      Atomic             Coordinates (Angstroms)
 Number     Number       Type             X           Y           Z
 ---------------------------------------------------------------------
      1          6           0       -1.037488   -1.171934    0.001729
      2          6           0        0.314912   -1.138130    0.002746
      3          6           0        1.008436    0.000276   -0.001556
      4          6           0        0.314748    1.138433   -0.002400
      5          6           0       -1.037611    1.171905   -0.000820
      6          6           0       -1.745088   -0.000009    0.000598
      7          1           0       -1.673196   -2.053663    0.003968
      8          1           0        0.775204   -2.106096    0.005207
      9          1           0        0.774912    2.106416   -0.002931
     10          1           0       -1.673671    2.053258   -0.000074
     11          7           0        2.345442    0.000178   -0.004920
     12          6           0        3.097952   -1.231232   -0.000507
     13          1           0        4.140938   -1.027442   -0.001831
     14          1           0        2.836296   -1.833119    0.861807
     15          1           0        2.835454   -1.838612   -0.859321
     16          6           0        3.098731    1.230832    0.004717
     17          1           0        4.141492    1.026616   -0.014784
     18          1           0        2.824061    1.847010   -0.844548
     19          1           0        2.849667    1.824804    0.876069
     20          6           0       -3.202133   -0.000295    0.000073
     21          7           0       -4.325332    0.000014   -0.000705
     22          6           0       -1.036137   -1.174108    0.001721
     23          6           0        0.314859   -1.141532    0.002769
     24          6           0        1.013182    0.000263   -0.001558
     25          6           0        0.314711    1.141829   -0.002374
     26          6           0       -1.036254    1.174096   -0.000794
     27          6           0       -1.742767   -0.000013    0.000543
     28          1           0       -1.672097   -2.062299    0.003837
     29          1           0        0.774492   -2.119452    0.005312
     30          1           0        0.774259    2.119775   -0.002802
     31          1           0       -1.672674    2.061859   -0.000088
     32          7           0        2.345293    0.000167   -0.004983
     33          6           0        3.093618   -1.231226   -0.000460
     34          1           0        4.145072   -1.024204   -0.001864
     35          1           0        2.821934   -1.830046    0.877406
     36          1           0        2.821053   -1.835644   -0.874674
     37          6           0        3.094381    1.230826    0.004699
     38          1           0        4.145645    1.023474   -0.014943
     39          1           0        2.809311    1.844220   -0.859979
     40          1           0        2.835603    1.821638    0.891652
     41          6           0       -3.205052   -0.000284    0.000002
     42          7           0       -4.320044    0.000009   -0.000635
 ---------------------------------------------------------------------
 FixB: optimizing general contractions.
 Ernie: Thresh=  0.10000D-02 Tol=  0.10000D-05 Strict=F.
 IA=     1 ShT= 1 ShC= 0 NL=   1 NS=   0.
 IA=     1 L=1 SC=0 ISt=    0 NBk=    0 NP=    0 IndPr=    0.
 IA=     2 ShT= 1 ShC= 0 NL=   1 NS=   0.
 IA=     2 L=1 SC=0 ISt=    0 NBk=    0 NP=    0 IndPr=    0.
 IA=     3 ShT= 1 ShC= 0 NL=   1 NS=   0.
 IA=     3 L=1 SC=0 ISt=    0 NBk=    0 NP=    0 IndPr=    0.
 IA=     4 ShT= 1 ShC= 0 NL=   1 NS=   0.
 IA=     4 L=1 SC=0 ISt=    0 NBk=    0 NP=    0 IndPr=    0.
 IA=     5 ShT= 1 ShC= 0 NL=   1 NS=   0.
 IA=     5 L=1 SC=0 ISt=    0 NBk=    0 NP=    0 IndPr=    0.
 IA=     6 ShT= 1 ShC= 0 NL=   1 NS=   0.
 IA=     6 L=1 SC=0 ISt=    0 NBk=    0 NP=    0 IndPr=    0.
 IA=     7 ShT= 0 ShC= 0 NL=   1 NS=   0.
 IA=     7 L=0 SC=0 ISt=    0 NBk=    0 NP=    0 IndPr=    0.
 IA=     8 ShT= 0 ShC= 0 NL=   1 NS=   0.
 IA=     8 L=0 SC=0 ISt=    0 NBk=    0 NP=    0 IndPr=    0.
 IA=     9 ShT= 0 ShC= 0 NL=   1 NS=   0.
 IA=     9 L=0 SC=0 ISt=    0 NBk=    0 NP=    0 IndPr=    0.
 IA=    10 ShT= 0 ShC= 0 NL=   1 NS=   0.
 IA=    10 L=0 SC=0 ISt=    0 NBk=    0 NP=    0 IndPr=    0.
 IA=    11 ShT= 1 ShC= 0 NL=   1 NS=   0.
 IA=    11 L=1 SC=0 ISt=    0 NBk=    0 NP=    0 IndPr=    0.
 IA=    12 ShT= 1 ShC= 0 NL=   1 NS=   0.
 IA=    12 L=1 SC=0 ISt=    0 NBk=    0 NP=    0 IndPr=    0.
 IA=    13 ShT= 0 ShC= 0 NL=   1 NS=   0.
 IA=    13 L=0 SC=0 ISt=    0 NBk=    0 NP=    0 IndPr=    0.
 IA=    14 ShT= 0 ShC= 0 NL=   1 NS=   0.
 IA=    14 L=0 SC=0 ISt=    0 NBk=    0 NP=    0 IndPr=    0.
 IA=    15 ShT= 0 ShC= 0 NL=   1 NS=   0.
 IA=    15 L=0 SC=0 ISt=    0 NBk=    0 NP=    0 IndPr=    0.
 IA=    16 ShT= 1 ShC= 0 NL=   1 NS=   0.
 IA=    16 L=1 SC=0 ISt=    0 NBk=    0 NP=    0 IndPr=    0.
 IA=    17 ShT= 0 ShC= 0 NL=   1 NS=   0.
 IA=    17 L=0 SC=0 ISt=    0 NBk=    0 NP=    0 IndPr=    0.
 IA=    18 ShT= 0 ShC= 0 NL=   1 NS=   0.
 IA=    18 L=0 SC=0 ISt=    0 NBk=    0 NP=    0 IndPr=    0.
 IA=    19 ShT= 0 ShC= 0 NL=   1 NS=   0.
 IA=    19 L=0 SC=0 ISt=    0 NBk=    0 NP=    0 IndPr=    0.
 IA=    20 ShT= 1 ShC= 0 NL=   1 NS=   0.
 IA=    20 L=1 SC=0 ISt=    0 NBk=    0 NP=    0 IndPr=    0.
 IA=    21 ShT= 1 ShC= 0 NL=   1 NS=   0.
 IA=    21 L=1 SC=0 ISt=    0 NBk=    0 NP=    0 IndPr=    0.
 IA=    22 ShT= 1 ShC= 0 NL=   1 NS=   0.
 IA=    22 L=1 SC=0 ISt=    0 NBk=    0 NP=    0 IndPr=    0.
 IA=    23 ShT= 1 ShC= 0 NL=   1 NS=   0.
 IA=    23 L=1 SC=0 ISt=    0 NBk=    0 NP=    0 IndPr=    0.
 IA=    24 ShT= 1 ShC= 0 NL=   1 NS=   0.
 IA=    24 L=1 SC=0 ISt=    0 NBk=    0 NP=    0 IndPr=    0.
 IA=    25 ShT= 1 ShC= 0 NL=   1 NS=   0.
 IA=    25 L=1 SC=0 ISt=    0 NBk=    0 NP=    0 IndPr=    0.
 IA=    26 ShT= 1 ShC= 0 NL=   1 NS=   0.
 IA=    26 L=1 SC=0 ISt=    0 NBk=    0 NP=    0 IndPr=    0.
 IA=    27 ShT= 1 ShC= 0 NL=   1 NS=   0.
 IA=    27 L=1 SC=0 ISt=    0 NBk=    0 NP=    0 IndPr=    0.
 IA=    28 ShT= 0 ShC= 0 NL=   1 NS=   0.
 IA=    28 L=0 SC=0 ISt=    0 NBk=    0 NP=    0 IndPr=    0.
 IA=    29 ShT= 0 ShC= 0 NL=   1 NS=   0.
 IA=    29 L=0 SC=0 ISt=    0 NBk=    0 NP=    0 IndPr=    0.
 IA=    30 ShT= 0 ShC= 0 NL=   1 NS=   0.
 IA=    30 L=0 SC=0 ISt=    0 NBk=    0 NP=    0 IndPr=    0.
 IA=    31 ShT= 0 ShC= 0 NL=   1 NS=   0.
 IA=    31 L=0 SC=0 ISt=    0 NBk=    0 NP=    0 IndPr=    0.
 IA=    32 ShT= 1 ShC= 0 NL=   1 NS=   0.
 IA=    32 L=1 SC=0 ISt=    0 NBk=    0 NP=    0 IndPr=    0.
 IA=    33 ShT= 1 ShC= 0 NL=   1 NS=   0.
 IA=    33 L=1 SC=0 ISt=    0 NBk=    0 NP=    0 IndPr=    0.
 IA=    34 ShT= 0 ShC= 0 NL=   1 NS=   0.
 IA=    34 L=0 SC=0 ISt=    0 NBk=    0 NP=    0 IndPr=    0.
 IA=    35 ShT= 0 ShC= 0 NL=   1 NS=   0.
 IA=    35 L=0 SC=0 ISt=    0 NBk=    0 NP=    0 IndPr=    0.
 IA=    36 ShT= 0 ShC= 0 NL=   1 NS=   0.
 IA=    36 L=0 SC=0 ISt=    0 NBk=    0 NP=    0 IndPr=    0.
 IA=    37 ShT= 1 ShC= 0 NL=   1 NS=   0.
 IA=    37 L=1 SC=0 ISt=    0 NBk=    0 NP=    0 IndPr=    0.
 IA=    38 ShT= 0 ShC= 0 NL=   1 NS=   0.
 IA=    38 L=0 SC=0 ISt=    0 NBk=    0 NP=    0 IndPr=    0.
 IA=    39 ShT= 0 ShC= 0 NL=   1 NS=   0.
 IA=    39 L=0 SC=0 ISt=    0 NBk=    0 NP=    0 IndPr=    0.
 IA=    40 ShT= 0 ShC= 0 NL=   1 NS=   0.
 IA=    40 L=0 SC=0 ISt=    0 NBk=    0 NP=    0 IndPr=    0.
 IA=    41 ShT= 1 ShC= 0 NL=   1 NS=   0.
 IA=    41 L=1 SC=0 ISt=    0 NBk=    0 NP=    0 IndPr=    0.
 IA=    42 ShT= 1 ShC= 0 NL=   1 NS=   0.
 IA=    42 L=1 SC=0 ISt=    0 NBk=    0 NP=    0 IndPr=    0.
 LdAtmC:  AtmChg=     4.000000     4.000000     4.000000     4.000000     4.000000
 LdAtmC:  AtmChg=     4.000000     1.000000     1.000000     1.000000     1.000000
 LdAtmC:  AtmChg=     5.000000     4.000000     1.000000     1.000000     1.000000
 LdAtmC:  AtmChg=     4.000000     1.000000     1.000000     1.000000     4.000000
 LdAtmC:  AtmChg=     5.000000     4.000000     4.000000     4.000000     4.000000
 LdAtmC:  AtmChg=     4.000000     4.000000     1.000000     1.000000     1.000000
 LdAtmC:  AtmChg=     1.000000     5.000000     4.000000     1.000000     1.000000
 LdAtmC:  AtmChg=     1.000000     4.000000     1.000000     1.000000     1.000000
 LdAtmC:  AtmChg=     4.000000     5.000000
 AtZEff=     -3.9000000     -3.9000000     -3.9000000     -3.9000000     -3.9000000
 AtZEff=     -3.9000000     -1.0000000     -1.0000000     -1.0000000     -1.0000000
 AtZEff=     -4.9000000     -3.9000000     -1.0000000     -1.0000000     -1.0000000
 AtZEff=     -3.9000000     -1.0000000     -1.0000000     -1.0000000     -3.9000000
 AtZEff=     -4.9000000     -3.9000000     -3.9000000     -3.9000000     -3.9000000
 AtZEff=     -3.9000000     -3.9000000     -1.0000000     -1.0000000     -1.0000000
 AtZEff=     -1.0000000     -4.9000000     -3.9000000     -1.0000000     -1.0000000
 AtZEff=     -1.0000000     -3.9000000     -1.0000000     -1.0000000     -1.0000000
 AtZEff=     -3.9000000     -4.9000000
   108 basis functions,   540 primitive gaussians,   108 cartesian basis functions
    56 alpha electrons       56 beta electrons
       nuclear repulsion energy    109442.9475562187 Hartrees.
 IS=     1 IAt=     1 ISR=     1 T=1 IP=      1 IndIP=      1 IndIPD=      0 C= -1.459644D-01  4.545345D-01                             NZ=T
 IS=     1 IAt=     1 ISR=     1 T=1 IP=      2 IndIP=      2 IndIPD=      1 C= -9.878810D-02  5.371300D-01                             NZ=T
 IS=     1 IAt=     1 ISR=     1 T=1 IP=      3 IndIP=      3 IndIPD=      2 C=  8.274218D-02  4.467567D-01                             NZ=T
 IS=     1 IAt=     1 ISR=     1 T=1 IP=      4 IndIP=      4 IndIPD=      3 C=  1.933531D-01  1.872927D-01                             NZ=T
 IS=     1 IAt=     1 ISR=     1 T=1 IP=      5 IndIP=      5 IndIPD=      4 C=  5.763473D-02  1.981263D-02                             NZ=T
 IS=     2 IAt=     2 ISR=     1 T=1 IP=      1 IndIP=      6 IndIPD=      0 C= -1.459644D-01  4.545345D-01                             NZ=T
 IS=     2 IAt=     2 ISR=     1 T=1 IP=      2 IndIP=      7 IndIPD=      1 C= -9.878810D-02  5.371300D-01                             NZ=T
 IS=     2 IAt=     2 ISR=     1 T=1 IP=      3 IndIP=      8 IndIPD=      2 C=  8.274218D-02  4.467567D-01                             NZ=T
 IS=     2 IAt=     2 ISR=     1 T=1 IP=      4 IndIP=      9 IndIPD=      3 C=  1.933531D-01  1.872927D-01                             NZ=T
 IS=     2 IAt=     2 ISR=     1 T=1 IP=      5 IndIP=     10 IndIPD=      4 C=  5.763473D-02  1.981263D-02                             NZ=T
 IS=     3 IAt=     3 ISR=     1 T=1 IP=      1 IndIP=     11 IndIPD=      0 C= -1.459644D-01  4.545345D-01                             NZ=T
 IS=     3 IAt=     3 ISR=     1 T=1 IP=      2 IndIP=     12 IndIPD=      1 C= -9.878810D-02  5.371300D-01                             NZ=T
 IS=     3 IAt=     3 ISR=     1 T=1 IP=      3 IndIP=     13 IndIPD=      2 C=  8.274218D-02  4.467567D-01                             NZ=T
 IS=     3 IAt=     3 ISR=     1 T=1 IP=      4 IndIP=     14 IndIPD=      3 C=  1.933531D-01  1.872927D-01                             NZ=T
 IS=     3 IAt=     3 ISR=     1 T=1 IP=      5 IndIP=     15 IndIPD=      4 C=  5.763473D-02  1.981263D-02                             NZ=T
 IS=     4 IAt=     4 ISR=     1 T=1 IP=      1 IndIP=     16 IndIPD=      0 C= -1.459644D-01  4.545345D-01                             NZ=T
 IS=     4 IAt=     4 ISR=     1 T=1 IP=      2 IndIP=     17 IndIPD=      1 C= -9.878810D-02  5.371300D-01                             NZ=T
 IS=     4 IAt=     4 ISR=     1 T=1 IP=      3 IndIP=     18 IndIPD=      2 C=  8.274218D-02  4.467567D-01                             NZ=T
 IS=     4 IAt=     4 ISR=     1 T=1 IP=      4 IndIP=     19 IndIPD=      3 C=  1.933531D-01  1.872927D-01                             NZ=T
 IS=     4 IAt=     4 ISR=     1 T=1 IP=      5 IndIP=     20 IndIPD=      4 C=  5.763473D-02  1.981263D-02                             NZ=T
 IS=     5 IAt=     5 ISR=     1 T=1 IP=      1 IndIP=     21 IndIPD=      0 C= -1.459644D-01  4.545345D-01                             NZ=T
 IS=     5 IAt=     5 ISR=     1 T=1 IP=      2 IndIP=     22 IndIPD=      1 C= -9.878810D-02  5.371300D-01                             NZ=T
 IS=     5 IAt=     5 ISR=     1 T=1 IP=      3 IndIP=     23 IndIPD=      2 C=  8.274218D-02  4.467567D-01                             NZ=T
 IS=     5 IAt=     5 ISR=     1 T=1 IP=      4 IndIP=     24 IndIPD=      3 C=  1.933531D-01  1.872927D-01                             NZ=T
 IS=     5 IAt=     5 ISR=     1 T=1 IP=      5 IndIP=     25 IndIPD=      4 C=  5.763473D-02  1.981263D-02                             NZ=T
 IS=     6 IAt=     6 ISR=     1 T=1 IP=      1 IndIP=     26 IndIPD=      0 C= -1.459644D-01  4.545345D-01                             NZ=T
 IS=     6 IAt=     6 ISR=     1 T=1 IP=      2 IndIP=     27 IndIPD=      1 C= -9.878810D-02  5.371300D-01                             NZ=T
 IS=     6 IAt=     6 ISR=     1 T=1 IP=      3 IndIP=     28 IndIPD=      2 C=  8.274218D-02  4.467567D-01                             NZ=T
 IS=     6 IAt=     6 ISR=     1 T=1 IP=      4 IndIP=     29 IndIPD=      3 C=  1.933531D-01  1.872927D-01                             NZ=T
 IS=     6 IAt=     6 ISR=     1 T=1 IP=      5 IndIP=     30 IndIPD=      4 C=  5.763473D-02  1.981263D-02                             NZ=T
 IS=     7 IAt=     7 ISR=     1 T=0 IP=      1 IndIP=     31 IndIPD=      0 C=  1.278915D-01  0.000000D+00                             NZ=T
 IS=     7 IAt=     7 ISR=     1 T=0 IP=      2 IndIP=     32 IndIPD=      1 C=  1.836897D-01  0.000000D+00                             NZ=T
 IS=     7 IAt=     7 ISR=     1 T=0 IP=      3 IndIP=     33 IndIPD=      2 C=  2.062484D-01  0.000000D+00                             NZ=T
 IS=     7 IAt=     7 ISR=     1 T=0 IP=      4 IndIP=     34 IndIPD=      3 C=  1.339791D-01  0.000000D+00                             NZ=T
 IS=     7 IAt=     7 ISR=     1 T=0 IP=      5 IndIP=     35 IndIPD=      4 C=  2.584850D-02  0.000000D+00                             NZ=T
 IS=     8 IAt=     8 ISR=     1 T=0 IP=      1 IndIP=     36 IndIPD=      0 C=  1.278915D-01  0.000000D+00                             NZ=T
 IS=     8 IAt=     8 ISR=     1 T=0 IP=      2 IndIP=     37 IndIPD=      1 C=  1.836897D-01  0.000000D+00                             NZ=T
 IS=     8 IAt=     8 ISR=     1 T=0 IP=      3 IndIP=     38 IndIPD=      2 C=  2.062484D-01  0.000000D+00                             NZ=T
 IS=     8 IAt=     8 ISR=     1 T=0 IP=      4 IndIP=     39 IndIPD=      3 C=  1.339791D-01  0.000000D+00                             NZ=T
 IS=     8 IAt=     8 ISR=     1 T=0 IP=      5 IndIP=     40 IndIPD=      4 C=  2.584850D-02  0.000000D+00                             NZ=T
 IS=     9 IAt=     9 ISR=     1 T=0 IP=      1 IndIP=     41 IndIPD=      0 C=  1.278915D-01  0.000000D+00                             NZ=T
 IS=     9 IAt=     9 ISR=     1 T=0 IP=      2 IndIP=     42 IndIPD=      1 C=  1.836897D-01  0.000000D+00                             NZ=T
 IS=     9 IAt=     9 ISR=     1 T=0 IP=      3 IndIP=     43 IndIPD=      2 C=  2.062484D-01  0.000000D+00                             NZ=T
 IS=     9 IAt=     9 ISR=     1 T=0 IP=      4 IndIP=     44 IndIPD=      3 C=  1.339791D-01  0.000000D+00                             NZ=T
 IS=     9 IAt=     9 ISR=     1 T=0 IP=      5 IndIP=     45 IndIPD=      4 C=  2.584850D-02  0.000000D+00                             NZ=T
 IS=    10 IAt=    10 ISR=     1 T=0 IP=      1 IndIP=     46 IndIPD=      0 C=  1.278915D-01  0.000000D+00                             NZ=T
 IS=    10 IAt=    10 ISR=     1 T=0 IP=      2 IndIP=     47 IndIPD=      1 C=  1.836897D-01  0.000000D+00                             NZ=T
 IS=    10 IAt=    10 ISR=     1 T=0 IP=      3 IndIP=     48 IndIPD=      2 C=  2.062484D-01  0.000000D+00                             NZ=T
 IS=    10 IAt=    10 ISR=     1 T=0 IP=      4 IndIP=     49 IndIPD=      3 C=  1.339791D-01  0.000000D+00                             NZ=T
 IS=    10 IAt=    10 ISR=     1 T=0 IP=      5 IndIP=     50 IndIPD=      4 C=  2.584850D-02  0.000000D+00                             NZ=T
 IS=    11 IAt=    11 ISR=     1 T=1 IP=      1 IndIP=     51 IndIPD=      0 C= -1.918752D-01  7.170013D-01                             NZ=T
 IS=    11 IAt=    11 ISR=     1 T=1 IP=      2 IndIP=     52 IndIPD=      1 C= -1.298603D-01  8.472908D-01                             NZ=T
 IS=    11 IAt=    11 ISR=     1 T=1 IP=      3 IndIP=     53 IndIPD=      2 C=  1.087674D-01  7.047324D-01                             NZ=T
 IS=    11 IAt=    11 ISR=     1 T=1 IP=      4 IndIP=     54 IndIPD=      3 C=  2.541693D-01  2.954431D-01                             NZ=T
 IS=    11 IAt=    11 ISR=     1 T=1 IP=      5 IndIP=     55 IndIPD=      4 C=  7.576281D-02  3.125325D-02                             NZ=T
 IS=    12 IAt=    12 ISR=     1 T=1 IP=      1 IndIP=     56 IndIPD=      0 C= -1.459644D-01  4.545345D-01                             NZ=T
 IS=    12 IAt=    12 ISR=     1 T=1 IP=      2 IndIP=     57 IndIPD=      1 C= -9.878810D-02  5.371300D-01                             NZ=T
 IS=    12 IAt=    12 ISR=     1 T=1 IP=      3 IndIP=     58 IndIPD=      2 C=  8.274218D-02  4.467567D-01                             NZ=T
 IS=    12 IAt=    12 ISR=     1 T=1 IP=      4 IndIP=     59 IndIPD=      3 C=  1.933531D-01  1.872927D-01                             NZ=T
 IS=    12 IAt=    12 ISR=     1 T=1 IP=      5 IndIP=     60 IndIPD=      4 C=  5.763473D-02  1.981263D-02                             NZ=T
 IS=    13 IAt=    13 ISR=     1 T=0 IP=      1 IndIP=     61 IndIPD=      0 C=  1.278915D-01  0.000000D+00                             NZ=T
 IS=    13 IAt=    13 ISR=     1 T=0 IP=      2 IndIP=     62 IndIPD=      1 C=  1.836897D-01  0.000000D+00                             NZ=T
 IS=    13 IAt=    13 ISR=     1 T=0 IP=      3 IndIP=     63 IndIPD=      2 C=  2.062484D-01  0.000000D+00                             NZ=T
 IS=    13 IAt=    13 ISR=     1 T=0 IP=      4 IndIP=     64 IndIPD=      3 C=  1.339791D-01  0.000000D+00                             NZ=T
 IS=    13 IAt=    13 ISR=     1 T=0 IP=      5 IndIP=     65 IndIPD=      4 C=  2.584850D-02  0.000000D+00                             NZ=T
 IS=    14 IAt=    14 ISR=     1 T=0 IP=      1 IndIP=     66 IndIPD=      0 C=  1.278915D-01  0.000000D+00                             NZ=T
 IS=    14 IAt=    14 ISR=     1 T=0 IP=      2 IndIP=     67 IndIPD=      1 C=  1.836897D-01  0.000000D+00                             NZ=T
 IS=    14 IAt=    14 ISR=     1 T=0 IP=      3 IndIP=     68 IndIPD=      2 C=  2.062484D-01  0.000000D+00                             NZ=T
 IS=    14 IAt=    14 ISR=     1 T=0 IP=      4 IndIP=     69 IndIPD=      3 C=  1.339791D-01  0.000000D+00                             NZ=T
 IS=    14 IAt=    14 ISR=     1 T=0 IP=      5 IndIP=     70 IndIPD=      4 C=  2.584850D-02  0.000000D+00                             NZ=T
 IS=    15 IAt=    15 ISR=     1 T=0 IP=      1 IndIP=     71 IndIPD=      0 C=  1.278915D-01  0.000000D+00                             NZ=T
 IS=    15 IAt=    15 ISR=     1 T=0 IP=      2 IndIP=     72 IndIPD=      1 C=  1.836897D-01  0.000000D+00                             NZ=T
 IS=    15 IAt=    15 ISR=     1 T=0 IP=      3 IndIP=     73 IndIPD=      2 C=  2.062484D-01  0.000000D+00                             NZ=T
 IS=    15 IAt=    15 ISR=     1 T=0 IP=      4 IndIP=     74 IndIPD=      3 C=  1.339791D-01  0.000000D+00                             NZ=T
 IS=    15 IAt=    15 ISR=     1 T=0 IP=      5 IndIP=     75 IndIPD=      4 C=  2.584850D-02  0.000000D+00                             NZ=T
 IS=    16 IAt=    16 ISR=     1 T=1 IP=      1 IndIP=     76 IndIPD=      0 C= -1.459644D-01  4.545345D-01                             NZ=T
 IS=    16 IAt=    16 ISR=     1 T=1 IP=      2 IndIP=     77 IndIPD=      1 C= -9.878810D-02  5.371300D-01                             NZ=T
 IS=    16 IAt=    16 ISR=     1 T=1 IP=      3 IndIP=     78 IndIPD=      2 C=  8.274218D-02  4.467567D-01                             NZ=T
 IS=    16 IAt=    16 ISR=     1 T=1 IP=      4 IndIP=     79 IndIPD=      3 C=  1.933531D-01  1.872927D-01                             NZ=T
 IS=    16 IAt=    16 ISR=     1 T=1 IP=      5 IndIP=     80 IndIPD=      4 C=  5.763473D-02  1.981263D-02                             NZ=T
 IS=    17 IAt=    17 ISR=     1 T=0 IP=      1 IndIP=     81 IndIPD=      0 C=  1.278915D-01  0.000000D+00                             NZ=T
 IS=    17 IAt=    17 ISR=     1 T=0 IP=      2 IndIP=     82 IndIPD=      1 C=  1.836897D-01  0.000000D+00                             NZ=T
 IS=    17 IAt=    17 ISR=     1 T=0 IP=      3 IndIP=     83 IndIPD=      2 C=  2.062484D-01  0.000000D+00                             NZ=T
 IS=    17 IAt=    17 ISR=     1 T=0 IP=      4 IndIP=     84 IndIPD=      3 C=  1.339791D-01  0.000000D+00                             NZ=T
 IS=    17 IAt=    17 ISR=     1 T=0 IP=      5 IndIP=     85 IndIPD=      4 C=  2.584850D-02  0.000000D+00                             NZ=T
 IS=    18 IAt=    18 ISR=     1 T=0 IP=      1 IndIP=     86 IndIPD=      0 C=  1.278915D-01  0.000000D+00                             NZ=T
 IS=    18 IAt=    18 ISR=     1 T=0 IP=      2 IndIP=     87 IndIPD=      1 C=  1.836897D-01  0.000000D+00                             NZ=T
 IS=    18 IAt=    18 ISR=     1 T=0 IP=      3 IndIP=     88 IndIPD=      2 C=  2.062484D-01  0.000000D+00                             NZ=T
 IS=    18 IAt=    18 ISR=     1 T=0 IP=      4 IndIP=     89 IndIPD=      3 C=  1.339791D-01  0.000000D+00                             NZ=T
 IS=    18 IAt=    18 ISR=     1 T=0 IP=      5 IndIP=     90 IndIPD=      4 C=  2.584850D-02  0.000000D+00                             NZ=T
 IS=    19 IAt=    19 ISR=     1 T=0 IP=      1 IndIP=     91 IndIPD=      0 C=  1.278915D-01  0.000000D+00                             NZ=T
 IS=    19 IAt=    19 ISR=     1 T=0 IP=      2 IndIP=     92 IndIPD=      1 C=  1.836897D-01  0.000000D+00                             NZ=T
 IS=    19 IAt=    19 ISR=     1 T=0 IP=      3 IndIP=     93 IndIPD=      2 C=  2.062484D-01  0.000000D+00                             NZ=T
 IS=    19 IAt=    19 ISR=     1 T=0 IP=      4 IndIP=     94 IndIPD=      3 C=  1.339791D-01  0.000000D+00                             NZ=T
 IS=    19 IAt=    19 ISR=     1 T=0 IP=      5 IndIP=     95 IndIPD=      4 C=  2.584850D-02  0.000000D+00                             NZ=T
 IS=    20 IAt=    20 ISR=     1 T=1 IP=      1 IndIP=     96 IndIPD=      0 C= -1.459644D-01  4.545345D-01                             NZ=T
 IS=    20 IAt=    20 ISR=     1 T=1 IP=      2 IndIP=     97 IndIPD=      1 C= -9.878810D-02  5.371300D-01                             NZ=T
 IS=    20 IAt=    20 ISR=     1 T=1 IP=      3 IndIP=     98 IndIPD=      2 C=  8.274218D-02  4.467567D-01                             NZ=T
 IS=    20 IAt=    20 ISR=     1 T=1 IP=      4 IndIP=     99 IndIPD=      3 C=  1.933531D-01  1.872927D-01                             NZ=T
 IS=    20 IAt=    20 ISR=     1 T=1 IP=      5 IndIP=    100 IndIPD=      4 C=  5.763473D-02  1.981263D-02                             NZ=T
 IS=    21 IAt=    21 ISR=     1 T=1 IP=      1 IndIP=    101 IndIPD=      0 C= -1.918752D-01  7.170013D-01                             NZ=T
 IS=    21 IAt=    21 ISR=     1 T=1 IP=      2 IndIP=    102 IndIPD=      1 C= -1.298603D-01  8.472908D-01                             NZ=T
 IS=    21 IAt=    21 ISR=     1 T=1 IP=      3 IndIP=    103 IndIPD=      2 C=  1.087674D-01  7.047324D-01                             NZ=T
 IS=    21 IAt=    21 ISR=     1 T=1 IP=      4 IndIP=    104 IndIPD=      3 C=  2.541693D-01  2.954431D-01                             NZ=T
 IS=    21 IAt=    21 ISR=     1 T=1 IP=      5 IndIP=    105 IndIPD=      4 C=  7.576281D-02  3.125325D-02                             NZ=T
 IS=    22 IAt=    22 ISR=     1 T=1 IP=      1 IndIP=    106 IndIPD=      0 C= -1.459644D-01  4.545345D-01                             NZ=T
 IS=    22 IAt=    22 ISR=     1 T=1 IP=      2 IndIP=    107 IndIPD=      1 C= -9.878810D-02  5.371300D-01                             NZ=T
 IS=    22 IAt=    22 ISR=     1 T=1 IP=      3 IndIP=    108 IndIPD=      2 C=  8.274218D-02  4.467567D-01                             NZ=T
 IS=    22 IAt=    22 ISR=     1 T=1 IP=      4 IndIP=    109 IndIPD=      3 C=  1.933531D-01  1.872927D-01                             NZ=T
 IS=    22 IAt=    22 ISR=     1 T=1 IP=      5 IndIP=    110 IndIPD=      4 C=  5.763473D-02  1.981263D-02                             NZ=T
 IS=    23 IAt=    23 ISR=     1 T=1 IP=      1 IndIP=    111 IndIPD=      0 C= -1.459644D-01  4.545345D-01                             NZ=T
 IS=    23 IAt=    23 ISR=     1 T=1 IP=      2 IndIP=    112 IndIPD=      1 C= -9.878810D-02  5.371300D-01                             NZ=T
 IS=    23 IAt=    23 ISR=     1 T=1 IP=      3 IndIP=    113 IndIPD=      2 C=  8.274218D-02  4.467567D-01                             NZ=T
 IS=    23 IAt=    23 ISR=     1 T=1 IP=      4 IndIP=    114 IndIPD=      3 C=  1.933531D-01  1.872927D-01                             NZ=T
 IS=    23 IAt=    23 ISR=     1 T=1 IP=      5 IndIP=    115 IndIPD=      4 C=  5.763473D-02  1.981263D-02                             NZ=T
 IS=    24 IAt=    24 ISR=     1 T=1 IP=      1 IndIP=    116 IndIPD=      0 C= -1.459644D-01  4.545345D-01                             NZ=T
 IS=    24 IAt=    24 ISR=     1 T=1 IP=      2 IndIP=    117 IndIPD=      1 C= -9.878810D-02  5.371300D-01                             NZ=T
 IS=    24 IAt=    24 ISR=     1 T=1 IP=      3 IndIP=    118 IndIPD=      2 C=  8.274218D-02  4.467567D-01                             NZ=T
 IS=    24 IAt=    24 ISR=     1 T=1 IP=      4 IndIP=    119 IndIPD=      3 C=  1.933531D-01  1.872927D-01                             NZ=T
 IS=    24 IAt=    24 ISR=     1 T=1 IP=      5 IndIP=    120 IndIPD=      4 C=  5.763473D-02  1.981263D-02                             NZ=T
 IS=    25 IAt=    25 ISR=     1 T=1 IP=      1 IndIP=    121 IndIPD=      0 C= -1.459644D-01  4.545345D-01                             NZ=T
 IS=    25 IAt=    25 ISR=     1 T=1 IP=      2 IndIP=    122 IndIPD=      1 C= -9.878810D-02  5.371300D-01                             NZ=T
 IS=    25 IAt=    25 ISR=     1 T=1 IP=      3 IndIP=    123 IndIPD=      2 C=  8.274218D-02  4.467567D-01                             NZ=T
 IS=    25 IAt=    25 ISR=     1 T=1 IP=      4 IndIP=    124 IndIPD=      3 C=  1.933531D-01  1.872927D-01                             NZ=T
 IS=    25 IAt=    25 ISR=     1 T=1 IP=      5 IndIP=    125 IndIPD=      4 C=  5.763473D-02  1.981263D-02                             NZ=T
 IS=    26 IAt=    26 ISR=     1 T=1 IP=      1 IndIP=    126 IndIPD=      0 C= -1.459644D-01  4.545345D-01                             NZ=T
 IS=    26 IAt=    26 ISR=     1 T=1 IP=      2 IndIP=    127 IndIPD=      1 C= -9.878810D-02  5.371300D-01                             NZ=T
 IS=    26 IAt=    26 ISR=     1 T=1 IP=      3 IndIP=    128 IndIPD=      2 C=  8.274218D-02  4.467567D-01                             NZ=T
 IS=    26 IAt=    26 ISR=     1 T=1 IP=      4 IndIP=    129 IndIPD=      3 C=  1.933531D-01  1.872927D-01                             NZ=T
 IS=    26 IAt=    26 ISR=     1 T=1 IP=      5 IndIP=    130 IndIPD=      4 C=  5.763473D-02  1.981263D-02                             NZ=T
 IS=    27 IAt=    27 ISR=     1 T=1 IP=      1 IndIP=    131 IndIPD=      0 C= -1.459644D-01  4.545345D-01                             NZ=T
 IS=    27 IAt=    27 ISR=     1 T=1 IP=      2 IndIP=    132 IndIPD=      1 C= -9.878810D-02  5.371300D-01                             NZ=T
 IS=    27 IAt=    27 ISR=     1 T=1 IP=      3 IndIP=    133 IndIPD=      2 C=  8.274218D-02  4.467567D-01                             NZ=T
 IS=    27 IAt=    27 ISR=     1 T=1 IP=      4 IndIP=    134 IndIPD=      3 C=  1.933531D-01  1.872927D-01                             NZ=T
 IS=    27 IAt=    27 ISR=     1 T=1 IP=      5 IndIP=    135 IndIPD=      4 C=  5.763473D-02  1.981263D-02                             NZ=T
 IS=    28 IAt=    28 ISR=     1 T=0 IP=      1 IndIP=    136 IndIPD=      0 C=  1.278915D-01  0.000000D+00                             NZ=T
 IS=    28 IAt=    28 ISR=     1 T=0 IP=      2 IndIP=    137 IndIPD=      1 C=  1.836897D-01  0.000000D+00                             NZ=T
 IS=    28 IAt=    28 ISR=     1 T=0 IP=      3 IndIP=    138 IndIPD=      2 C=  2.062484D-01  0.000000D+00                             NZ=T
 IS=    28 IAt=    28 ISR=     1 T=0 IP=      4 IndIP=    139 IndIPD=      3 C=  1.339791D-01  0.000000D+00                             NZ=T
 IS=    28 IAt=    28 ISR=     1 T=0 IP=      5 IndIP=    140 IndIPD=      4 C=  2.584850D-02  0.000000D+00                             NZ=T
 IS=    29 IAt=    29 ISR=     1 T=0 IP=      1 IndIP=    141 IndIPD=      0 C=  1.278915D-01  0.000000D+00                             NZ=T
 IS=    29 IAt=    29 ISR=     1 T=0 IP=      2 IndIP=    142 IndIPD=      1 C=  1.836897D-01  0.000000D+00                             NZ=T
 IS=    29 IAt=    29 ISR=     1 T=0 IP=      3 IndIP=    143 IndIPD=      2 C=  2.062484D-01  0.000000D+00                             NZ=T
 IS=    29 IAt=    29 ISR=     1 T=0 IP=      4 IndIP=    144 IndIPD=      3 C=  1.339791D-01  0.000000D+00                             NZ=T
 IS=    29 IAt=    29 ISR=     1 T=0 IP=      5 IndIP=    145 IndIPD=      4 C=  2.584850D-02  0.000000D+00                             NZ=T
 IS=    30 IAt=    30 ISR=     1 T=0 IP=      1 IndIP=    146 IndIPD=      0 C=  1.278915D-01  0.000000D+00                             NZ=T
 IS=    30 IAt=    30 ISR=     1 T=0 IP=      2 IndIP=    147 IndIPD=      1 C=  1.836897D-01  0.000000D+00                             NZ=T
 IS=    30 IAt=    30 ISR=     1 T=0 IP=      3 IndIP=    148 IndIPD=      2 C=  2.062484D-01  0.000000D+00                             NZ=T
 IS=    30 IAt=    30 ISR=     1 T=0 IP=      4 IndIP=    149 IndIPD=      3 C=  1.339791D-01  0.000000D+00                             NZ=T
 IS=    30 IAt=    30 ISR=     1 T=0 IP=      5 IndIP=    150 IndIPD=      4 C=  2.584850D-02  0.000000D+00                             NZ=T
 IS=    31 IAt=    31 ISR=     1 T=0 IP=      1 IndIP=    151 IndIPD=      0 C=  1.278915D-01  0.000000D+00                             NZ=T
 IS=    31 IAt=    31 ISR=     1 T=0 IP=      2 IndIP=    152 IndIPD=      1 C=  1.836897D-01  0.000000D+00                             NZ=T
 IS=    31 IAt=    31 ISR=     1 T=0 IP=      3 IndIP=    153 IndIPD=      2 C=  2.062484D-01  0.000000D+00                             NZ=T
 IS=    31 IAt=    31 ISR=     1 T=0 IP=      4 IndIP=    154 IndIPD=      3 C=  1.339791D-01  0.000000D+00                             NZ=T
 IS=    31 IAt=    31 ISR=     1 T=0 IP=      5 IndIP=    155 IndIPD=      4 C=  2.584850D-02  0.000000D+00                             NZ=T
 IS=    32 IAt=    32 ISR=     1 T=1 IP=      1 IndIP=    156 IndIPD=      0 C= -1.918752D-01  7.170013D-01                             NZ=T
 IS=    32 IAt=    32 ISR=     1 T=1 IP=      2 IndIP=    157 IndIPD=      1 C= -1.298603D-01  8.472908D-01                             NZ=T
 IS=    32 IAt=    32 ISR=     1 T=1 IP=      3 IndIP=    158 IndIPD=      2 C=  1.087674D-01  7.047324D-01                             NZ=T
 IS=    32 IAt=    32 ISR=     1 T=1 IP=      4 IndIP=    159 IndIPD=      3 C=  2.541693D-01  2.954431D-01                             NZ=T
 IS=    32 IAt=    32 ISR=     1 T=1 IP=      5 IndIP=    160 IndIPD=      4 C=  7.576281D-02  3.125325D-02                             NZ=T
 IS=    33 IAt=    33 ISR=     1 T=1 IP=      1 IndIP=    161 IndIPD=      0 C= -1.459644D-01  4.545345D-01                             NZ=T
 IS=    33 IAt=    33 ISR=     1 T=1 IP=      2 IndIP=    162 IndIPD=      1 C= -9.878810D-02  5.371300D-01                             NZ=T
 IS=    33 IAt=    33 ISR=     1 T=1 IP=      3 IndIP=    163 IndIPD=      2 C=  8.274218D-02  4.467567D-01                             NZ=T
 IS=    33 IAt=    33 ISR=     1 T=1 IP=      4 IndIP=    164 IndIPD=      3 C=  1.933531D-01  1.872927D-01                             NZ=T
 IS=    33 IAt=    33 ISR=     1 T=1 IP=      5 IndIP=    165 IndIPD=      4 C=  5.763473D-02  1.981263D-02                             NZ=T
 IS=    34 IAt=    34 ISR=     1 T=0 IP=      1 IndIP=    166 IndIPD=      0 C=  1.278915D-01  0.000000D+00                             NZ=T
 IS=    34 IAt=    34 ISR=     1 T=0 IP=      2 IndIP=    167 IndIPD=      1 C=  1.836897D-01  0.000000D+00                             NZ=T
 IS=    34 IAt=    34 ISR=     1 T=0 IP=      3 IndIP=    168 IndIPD=      2 C=  2.062484D-01  0.000000D+00                             NZ=T
 IS=    34 IAt=    34 ISR=     1 T=0 IP=      4 IndIP=    169 IndIPD=      3 C=  1.339791D-01  0.000000D+00                             NZ=T
 IS=    34 IAt=    34 ISR=     1 T=0 IP=      5 IndIP=    170 IndIPD=      4 C=  2.584850D-02  0.000000D+00                             NZ=T
 IS=    35 IAt=    35 ISR=     1 T=0 IP=      1 IndIP=    171 IndIPD=      0 C=  1.278915D-01  0.000000D+00                             NZ=T
 IS=    35 IAt=    35 ISR=     1 T=0 IP=      2 IndIP=    172 IndIPD=      1 C=  1.836897D-01  0.000000D+00                             NZ=T
 IS=    35 IAt=    35 ISR=     1 T=0 IP=      3 IndIP=    173 IndIPD=      2 C=  2.062484D-01  0.000000D+00                             NZ=T
 IS=    35 IAt=    35 ISR=     1 T=0 IP=      4 IndIP=    174 IndIPD=      3 C=  1.339791D-01  0.000000D+00                             NZ=T
 IS=    35 IAt=    35 ISR=     1 T=0 IP=      5 IndIP=    175 IndIPD=      4 C=  2.584850D-02  0.000000D+00                             NZ=T
 IS=    36 IAt=    36 ISR=     1 T=0 IP=      1 IndIP=    176 IndIPD=      0 C=  1.278915D-01  0.000000D+00                             NZ=T
 IS=    36 IAt=    36 ISR=     1 T=0 IP=      2 IndIP=    177 IndIPD=      1 C=  1.836897D-01  0.000000D+00                             NZ=T
 IS=    36 IAt=    36 ISR=     1 T=0 IP=      3 IndIP=    178 IndIPD=      2 C=  2.062484D-01  0.000000D+00                             NZ=T
 IS=    36 IAt=    36 ISR=     1 T=0 IP=      4 IndIP=    179 IndIPD=      3 C=  1.339791D-01  0.000000D+00                             NZ=T
 IS=    36 IAt=    36 ISR=     1 T=0 IP=      5 IndIP=    180 IndIPD=      4 C=  2.584850D-02  0.000000D+00                             NZ=T
 IS=    37 IAt=    37 ISR=     1 T=1 IP=      1 IndIP=    181 IndIPD=      0 C= -1.459644D-01  4.545345D-01                             NZ=T
 IS=    37 IAt=    37 ISR=     1 T=1 IP=      2 IndIP=    182 IndIPD=      1 C= -9.878810D-02  5.371300D-01                             NZ=T
 IS=    37 IAt=    37 ISR=     1 T=1 IP=      3 IndIP=    183 IndIPD=      2 C=  8.274218D-02  4.467567D-01                             NZ=T
 IS=    37 IAt=    37 ISR=     1 T=1 IP=      4 IndIP=    184 IndIPD=      3 C=  1.933531D-01  1.872927D-01                             NZ=T
 IS=    37 IAt=    37 ISR=     1 T=1 IP=      5 IndIP=    185 IndIPD=      4 C=  5.763473D-02  1.981263D-02                             NZ=T
 IS=    38 IAt=    38 ISR=     1 T=0 IP=      1 IndIP=    186 IndIPD=      0 C=  1.278915D-01  0.000000D+00                             NZ=T
 IS=    38 IAt=    38 ISR=     1 T=0 IP=      2 IndIP=    187 IndIPD=      1 C=  1.836897D-01  0.000000D+00                             NZ=T
 IS=    38 IAt=    38 ISR=     1 T=0 IP=      3 IndIP=    188 IndIPD=      2 C=  2.062484D-01  0.000000D+00                             NZ=T
 IS=    38 IAt=    38 ISR=     1 T=0 IP=      4 IndIP=    189 IndIPD=      3 C=  1.339791D-01  0.000000D+00                             NZ=T
 IS=    38 IAt=    38 ISR=     1 T=0 IP=      5 IndIP=    190 IndIPD=      4 C=  2.584850D-02  0.000000D+00                             NZ=T
 IS=    39 IAt=    39 ISR=     1 T=0 IP=      1 IndIP=    191 IndIPD=      0 C=  1.278915D-01  0.000000D+00                             NZ=T
 IS=    39 IAt=    39 ISR=     1 T=0 IP=      2 IndIP=    192 IndIPD=      1 C=  1.836897D-01  0.000000D+00                             NZ=T
 IS=    39 IAt=    39 ISR=     1 T=0 IP=      3 IndIP=    193 IndIPD=      2 C=  2.062484D-01  0.000000D+00                             NZ=T
 IS=    39 IAt=    39 ISR=     1 T=0 IP=      4 IndIP=    194 IndIPD=      3 C=  1.339791D-01  0.000000D+00                             NZ=T
 IS=    39 IAt=    39 ISR=     1 T=0 IP=      5 IndIP=    195 IndIPD=      4 C=  2.584850D-02  0.000000D+00                             NZ=T
 IS=    40 IAt=    40 ISR=     1 T=0 IP=      1 IndIP=    196 IndIPD=      0 C=  1.278915D-01  0.000000D+00                             NZ=T
 IS=    40 IAt=    40 ISR=     1 T=0 IP=      2 IndIP=    197 IndIPD=      1 C=  1.836897D-01  0.000000D+00                             NZ=T
 IS=    40 IAt=    40 ISR=     1 T=0 IP=      3 IndIP=    198 IndIPD=      2 C=  2.062484D-01  0.000000D+00                             NZ=T
 IS=    40 IAt=    40 ISR=     1 T=0 IP=      4 IndIP=    199 IndIPD=      3 C=  1.339791D-01  0.000000D+00                             NZ=T
 IS=    40 IAt=    40 ISR=     1 T=0 IP=      5 IndIP=    200 IndIPD=      4 C=  2.584850D-02  0.000000D+00                             NZ=T
 IS=    41 IAt=    41 ISR=     1 T=1 IP=      1 IndIP=    201 IndIPD=      0 C= -1.459644D-01  4.545345D-01                             NZ=T
 IS=    41 IAt=    41 ISR=     1 T=1 IP=      2 IndIP=    202 IndIPD=      1 C= -9.878810D-02  5.371300D-01                             NZ=T
 IS=    41 IAt=    41 ISR=     1 T=1 IP=      3 IndIP=    203 IndIPD=      2 C=  8.274218D-02  4.467567D-01                             NZ=T
 IS=    41 IAt=    41 ISR=     1 T=1 IP=      4 IndIP=    204 IndIPD=      3 C=  1.933531D-01  1.872927D-01                             NZ=T
 IS=    41 IAt=    41 ISR=     1 T=1 IP=      5 IndIP=    205 IndIPD=      4 C=  5.763473D-02  1.981263D-02                             NZ=T
 IS=    42 IAt=    42 ISR=     1 T=1 IP=      1 IndIP=    206 IndIPD=      0 C= -1.918752D-01  7.170013D-01                             NZ=T
 IS=    42 IAt=    42 ISR=     1 T=1 IP=      2 IndIP=    207 IndIPD=      1 C= -1.298603D-01  8.472908D-01                             NZ=T
 IS=    42 IAt=    42 ISR=     1 T=1 IP=      3 IndIP=    208 IndIPD=      2 C=  1.087674D-01  7.047324D-01                             NZ=T
 IS=    42 IAt=    42 ISR=     1 T=1 IP=      4 IndIP=    209 IndIPD=      3 C=  2.541693D-01  2.954431D-01                             NZ=T
 IS=    42 IAt=    42 ISR=     1 T=1 IP=      5 IndIP=    210 IndIPD=      4 C=  7.576281D-02  3.125325D-02                             NZ=T
 IExCor=    0 DFT=F Ex=HF Corr=None ExCW=0 ScaHFX=  1.000000
 ScaDFX=  1.000000  1.000000  1.000000  1.000000 ScalE2=  1.000000  1.000000
 IRadAn=      5 IRanWt=     -1 IRanGd=            0 ICorTp=0 IEmpDi=  4
 NAtoms=   42 NActive=   42 NUniq=   42 SFac= 1.00D+00 NAtFMM=   60 NAOKFM=F Big=F
 Integral buffers will be    131072 words long.
 Regular integral format.
 Two-electron integral symmetry is turned off.
 NPDir=0 NMtPBC=     1 NCelOv=     1 NCel=       1 NClECP=     1 NCelD=      1
         NCelK=      1 NCelE2=     1 NClLst=     1 CellRange=     0.0.
 One-electron integrals computed using PRISM.
 Entering OneElI...
 Calculate overlap and kinetic energy integrals
    NBasis = 108  MinDer = 0  MaxDer = 0
 Requested accuracy = 0.1000D-12
 PrmmSu-InSpLW:  IPartL=    0 NPrtUS=   12 NPrtUL=    1 DoSpLW=F IThBeg=    0 IThEnd=   11 NThAct=   12.
 PrSmSu:  IncTry=   512 NBBP=            903 NTPThr=   100 NPartT=   12 Incr=           1 LDynOK=F GPUOK=F.
 PrsmSu:  NPrtUS=  12 ThrOK=T IAlg=1 LenDen=           0 ISkipM=0 DoSpLW=F IThBeg=    0 IThEnd=   11.
 Prism:   IPart=     0 DynPar=F LinDyn=F Incr=           1.
 PRISM was handed   335352246 working-precision words and   903 shell-pairs
 PRISM was handed   335352246 working-precision words and   903 shell-pairs
 PRISM was handed   335352246 working-precision words and   903 shell-pairs
 PRISM was handed   335352246 working-precision words and   903 shell-pairs
 PRISM was handed   335352246 working-precision words and   903 shell-pairs
 PRISM was handed   335352246 working-precision words and   903 shell-pairs
 PRISM was handed   335352246 working-precision words and   903 shell-pairs
 PRISM was handed   335352246 working-precision words and   903 shell-pairs
 PRISM was handed   335352246 working-precision words and   903 shell-pairs
 PRISM was handed   335352246 working-precision words and   903 shell-pairs
 PRISM was handed   335352246 working-precision words and   903 shell-pairs
 PRISM was handed   335352246 working-precision words and   903 shell-pairs
 IPart= 10 NShTot=          64 NBatch=          25 AvBLen=         2.6
 IPart=  8 NShTot=          64 NBatch=          25 AvBLen=         2.6
 IPart=  9 NShTot=          64 NBatch=          25 AvBLen=         2.6
 IPart=  4 NShTot=          76 NBatch=          32 AvBLen=         2.4
 IPart=  0 NShTot=          88 NBatch=          34 AvBLen=         2.6
 IPart=  2 NShTot=          88 NBatch=          34 AvBLen=         2.6
 IPart=  5 NShTot=          74 NBatch=          31 AvBLen=         2.4
 IPart=  7 NShTot=          72 NBatch=          31 AvBLen=         2.3
 IPart=  6 NShTot=          73 NBatch=          31 AvBLen=         2.4
 IPart=  1 NShTot=          88 NBatch=          34 AvBLen=         2.6
 IPart= 11 NShTot=          64 NBatch=          25 AvBLen=         2.6
 IPart=  3 NShTot=          88 NBatch=          34 AvBLen=         2.6
 PrSmSu:  NxtVal=             13.
 *** Overlap *** 
                1             2             3             4             5 
      1  0.100000D+01
      2  0.000000D+00  0.100000D+01
      3  0.000000D+00  0.000000D+00  0.100000D+01
      4  0.000000D+00  0.000000D+00  0.000000D+00  0.100000D+01
      5  0.430218D+00  0.428488D+00  0.107100D-01  0.322377D-03  0.100000D+01
      6 -0.428488D+00 -0.326232D+00 -0.147605D-01 -0.444298D-03  0.000000D+00
      7 -0.107100D-01 -0.147605D-01  0.263939D+00 -0.111052D-04  0.000000D+00
      8 -0.322377D-03 -0.444298D-03 -0.111052D-04  0.264307D+00  0.000000D+00
      9  0.963615D-01  0.108574D+00  0.622073D-01 -0.174301D-03  0.440383D+00
     10 -0.108574D+00 -0.106106D+00 -0.832207D-01  0.233179D-03 -0.226240D+00
     11 -0.622073D-01 -0.832207D-01 -0.853783D-02  0.133600D-03 -0.371368D+00
     12  0.174301D-03  0.233179D-03  0.133600D-03  0.391430D-01  0.140337D-02
     13  0.540503D-01  0.372197D-01  0.635918D-01 -0.113638D-03  0.110895D+00
     14 -0.372197D-01 -0.966732D-02 -0.503568D-01  0.899869D-04  0.102101D-04
     15 -0.635918D-01 -0.503568D-01 -0.662312D-01  0.153747D-03 -0.142052D+00
     16  0.113638D-03  0.899869D-04  0.153747D-03  0.198058D-01  0.321103D-03
     17  0.987569D-01 -0.674763D-05  0.127946D+00 -0.139131D-03  0.540646D-01
     18  0.674763D-05  0.403132D-01  0.103956D-04  0.000000D+00  0.372387D-01
     19 -0.127946D+00  0.103956D-04 -0.156803D+00  0.214350D-03 -0.636016D-01
     20  0.139131D-03  0.000000D+00  0.214350D-03  0.403129D-01  0.981883D-04
     21  0.422008D+00 -0.218867D+00  0.362487D+00 -0.349776D-03  0.971120D-01
     22  0.218867D+00  0.100832D+00  0.259179D+00 -0.250091D-03  0.110300D+00
     23 -0.362487D+00  0.259179D+00 -0.171930D+00  0.414200D-03 -0.609393D-01
     24  0.349776D-03 -0.250091D-03  0.414200D-03  0.257322D+00  0.115029D-03
     25  0.520575D+00 -0.286238D+00 -0.397012D+00  0.100818D-02  0.112637D+00
     26  0.143136D+00  0.152469D+00 -0.785742D-01  0.292560D-03  0.529097D+00
     27  0.627036D-02  0.437581D-02  0.791517D-02 -0.112502D-04  0.160608D-01
     28  0.157414D-01 -0.418513D-02  0.212169D-01 -0.118584D-04  0.608774D-02
     29  0.407487D-02  0.649776D-02  0.225133D-02 -0.127706D-04  0.690351D-01
     30 -0.564251D-02 -0.853301D-02 -0.333907D-02  0.189407D-04 -0.730745D-01
     31 -0.195501D-02 -0.333907D-02 -0.527415D-04  0.656255D-05 -0.409653D-01
     32  0.110897D-04  0.189407D-04  0.656255D-05  0.110414D-02  0.275892D-03
     33  0.229573D-02  0.376508D-02 -0.539876D-04 -0.203526D-05  0.440569D-01
     34 -0.376508D-02 -0.596514D-02  0.942589D-04  0.355343D-05 -0.609458D-01
     35  0.539876D-04  0.942589D-04  0.607097D-03  0.000000D+00  0.203882D-02
     36  0.203526D-05  0.355343D-05  0.000000D+00  0.608447D-03  0.712363D-04
     37  0.239174D-03  0.396395D-03  0.110604D-04  0.000000D+00  0.529015D-02
     38  0.349674D-02  0.499832D-02 -0.853124D-03  0.110975D-02  0.427912D-01
     39  0.349446D-02  0.499376D-02 -0.859613D-03 -0.111023D-02  0.426713D-01
     40  0.434846D-03  0.662499D-03  0.384851D-03  0.000000D+00  0.711993D-02
     41 -0.662499D-03 -0.951626D-03 -0.613673D-03  0.000000D+00 -0.840362D-02
     42 -0.384851D-03 -0.613673D-03 -0.251713D-03  0.000000D+00 -0.715128D-02
     43  0.000000D+00  0.000000D+00  0.000000D+00  0.104774D-03 -0.594921D-05
     44  0.763926D-04  0.121574D-03  0.516097D-04  0.000000D+00  0.153555D-02
     45  0.397186D-03  0.501599D-03  0.392148D-03 -0.109928D-03  0.374697D-02
     46  0.386380D-03  0.490582D-03  0.378206D-03  0.110347D-03  0.370517D-02
     47  0.802659D-01 -0.931896D-01  0.504399D-01 -0.712744D-04  0.648448D-02
     48  0.931896D-01 -0.955717D-01  0.687699D-01 -0.971756D-04  0.960984D-02
     49 -0.504399D-01  0.687699D-01 -0.573930D-02  0.525974D-04 -0.310898D-02
     50  0.712744D-04 -0.971756D-04  0.525974D-04  0.314831D-01  0.730382D-05
     51  0.510934D-02 -0.802949D-02  0.286210D-02 -0.594462D-05  0.140530D-03
     52  0.696754D-02 -0.103628D-01  0.419599D-02 -0.871512D-05  0.231692D-03
     53 -0.248357D-02  0.419599D-02 -0.868442D-04  0.310649D-05 -0.568287D-04
     54  0.515841D-05 -0.871512D-05  0.310649D-05  0.140880D-02  0.000000D+00
     55  0.999997D+00  0.119782D-02 -0.192814D-02 -0.729620D-05  0.430879D+00
     56 -0.119782D-02  0.999990D+00  0.554247D-05  0.000000D+00  0.428882D+00
     57  0.192814D-02  0.554247D-05  0.999985D+00  0.000000D+00  0.114210D-01
     58  0.729620D-05  0.000000D+00  0.000000D+00  0.999994D+00  0.325608D-03
     59  0.430286D+00  0.428556D+00  0.963431D-02  0.329552D-03  0.999994D+00
     60 -0.428556D+00 -0.326286D+00 -0.132784D-01 -0.454200D-03  0.467913D-04
     61 -0.963431D-02 -0.132784D-01  0.264067D+00 -0.102108D-04  0.301523D-02
     62 -0.329552D-03 -0.454200D-03 -0.102108D-04  0.264365D+00 -0.198938D-04
     63  0.956722D-01  0.107932D+00  0.616956D-01 -0.172974D-03  0.439111D+00
     64 -0.107932D+00 -0.105698D+00 -0.826021D-01  0.231589D-03 -0.226966D+00
     65 -0.616956D-01 -0.826021D-01 -0.840858D-02  0.132380D-03 -0.370023D+00
     66  0.172974D-03  0.231589D-03  0.132380D-03  0.388078D-01  0.139895D-02
     67  0.537553D-01  0.369907D-01  0.632953D-01 -0.112236D-03  0.110253D+00
     68 -0.369907D-01 -0.958315D-02 -0.500738D-01  0.887913D-04  0.124896D-04
     69 -0.632953D-01 -0.500738D-01 -0.660012D-01  0.151932D-03 -0.141312D+00
     70  0.112236D-03  0.887913D-04  0.151932D-03  0.196805D-01  0.317355D-03
     71  0.983813D-01  0.670562D-04  0.127505D+00 -0.137122D-03  0.539423D-01
     72 -0.670562D-04  0.401292D-01 -0.103321D-03  0.000000D+00  0.371068D-01
     73 -0.127505D+00 -0.103321D-03 -0.156332D+00  0.211279D-03 -0.635002D-01
     74  0.137122D-03  0.000000D+00  0.211279D-03  0.401290D-01  0.972310D-04
     75  0.422616D+00 -0.218541D+00  0.363137D+00 -0.367348D-03  0.974564D-01
     76  0.218541D+00  0.101993D+00  0.258955D+00 -0.261958D-03  0.110625D+00
     77 -0.363137D+00  0.258955D+00 -0.172454D+00  0.435280D-03 -0.611876D-01
     78  0.367348D-03 -0.261958D-03  0.435280D-03  0.257836D+00  0.118438D-03
     79  0.517006D+00 -0.282953D+00 -0.396987D+00  0.940032D-03  0.112155D+00
     80  0.141895D+00  0.150794D+00 -0.788530D-01  0.298168D-03  0.522477D+00
     81  0.612419D-02  0.426443D-02  0.774792D-02 -0.106643D-04  0.156561D-01
     82  0.154910D-01 -0.410539D-02  0.209009D-01 -0.117451D-04  0.600273D-02
     83  0.407636D-02  0.650000D-02  0.225219D-02 -0.128971D-04  0.690535D-01
     84 -0.564445D-02 -0.853572D-02 -0.334028D-02  0.191281D-04 -0.730912D-01
     85 -0.195575D-02 -0.334028D-02 -0.527659D-04  0.662771D-05 -0.409773D-01
     86  0.111996D-04  0.191281D-04  0.662771D-05  0.110457D-02  0.278253D-03
     87  0.232020D-02  0.380333D-02 -0.545875D-04 -0.201506D-05  0.444250D-01
     88 -0.380333D-02 -0.602253D-02  0.952710D-04  0.351686D-05 -0.614177D-01
     89  0.545875D-04  0.952710D-04  0.614007D-03  0.000000D+00  0.205768D-02
     90  0.201506D-05  0.351686D-05  0.000000D+00  0.615373D-03  0.708668D-04
     91  0.236672D-03  0.392394D-03  0.111853D-04  0.000000D+00  0.524353D-02
     92  0.357999D-02  0.510655D-02 -0.870775D-03  0.115864D-02  0.434882D-01
     93  0.357821D-02  0.510266D-02 -0.877712D-03 -0.115898D-02  0.433718D-01
     94  0.439271D-03  0.668789D-03  0.388913D-03  0.000000D+00  0.717354D-02
     95 -0.668789D-03 -0.959921D-03 -0.619791D-03  0.000000D+00 -0.845792D-02
     96 -0.388913D-03 -0.619791D-03 -0.254528D-03  0.000000D+00 -0.720873D-02
     97  0.000000D+00  0.000000D+00  0.000000D+00  0.105892D-03 -0.594252D-05
     98  0.758723D-04  0.120817D-03  0.511741D-04  0.000000D+00  0.152839D-02
     99  0.407414D-03  0.513136D-03  0.402334D-03 -0.114946D-03  0.381190D-02
    100  0.395977D-03  0.501498D-03  0.387616D-03  0.115230D-03  0.376765D-02
    101  0.798973D-01 -0.928268D-01  0.501764D-01 -0.739402D-04  0.644350D-02
    102  0.928268D-01 -0.953036D-01  0.684404D-01 -0.100854D-03  0.955309D-02
    103 -0.501764D-01  0.684404D-01 -0.568267D-02  0.545154D-04 -0.308808D-02
    104  0.739402D-04 -0.100854D-03  0.545154D-04  0.313118D-01  0.744725D-05
    105  0.517334D-02 -0.812346D-02  0.290025D-02 -0.585072D-05  0.142774D-03
    106  0.704874D-02 -0.104738D-01  0.424915D-02 -0.857188D-05  0.235235D-03
    107 -0.251655D-02  0.424915D-02 -0.891696D-04  0.306034D-05 -0.577634D-04
    108  0.507668D-05 -0.857188D-05  0.306034D-05  0.142786D-02  0.000000D+00
                6             7             8             9            10 
      6  0.100000D+01
      7  0.000000D+00  0.100000D+01
      8  0.000000D+00  0.000000D+00  0.100000D+01
      9  0.226240D+00  0.371368D+00 -0.140337D-02  0.100000D+01
     10  0.111484D+00 -0.265228D+00  0.100228D-02  0.000000D+00  0.100000D+01
     11 -0.265228D+00 -0.162304D+00  0.164522D-02  0.000000D+00  0.000000D+00
     12  0.100228D-02  0.164522D-02  0.273057D+00  0.000000D+00  0.000000D+00
     13 -0.102101D-04  0.142052D+00 -0.321103D-03  0.440452D+00 -0.226338D+00
     14  0.463555D-01  0.156703D-04  0.000000D+00  0.226338D+00  0.111425D+00
     15  0.156703D-04 -0.171663D+00  0.492822D-03 -0.371360D+00  0.265304D+00
     16  0.000000D+00  0.492822D-03  0.463544D-01  0.275424D-03 -0.196766D-03
     17 -0.372387D-01  0.636016D-01 -0.981883D-04  0.963923D-01 -0.108620D+00
     18 -0.968387D-02  0.503776D-01 -0.777731D-04  0.108620D+00 -0.106172D+00
     19  0.503776D-01 -0.662300D-01  0.132832D-03 -0.621993D-01  0.832207D-01
     20 -0.777731D-04  0.132832D-03  0.198119D-01 -0.390573D-04  0.522574D-04
     21 -0.110300D+00  0.609393D-01 -0.115029D-03  0.467588D-01 -0.644389D-01
     22 -0.109310D+00  0.822205D-01 -0.155199D-03  0.644389D-01 -0.846805D-01
     23  0.822205D-01 -0.591663D-02  0.857456D-04  0.666476D-05 -0.104909D-04
     24 -0.155199D-03  0.857456D-04  0.395089D-01 -0.504000D-04  0.793338D-04
     25 -0.124996D+00 -0.575612D-01  0.768029D-04  0.131871D-01 -0.145217D-01
     26  0.212123D+00 -0.446082D+00  0.113401D-02  0.126034D+00 -0.167993D-01
     27  0.309385D-02  0.218220D-01 -0.381833D-04  0.126077D+00 -0.168272D-01
     28 -0.465065D-02  0.746362D-02 -0.659528D-05  0.131925D-01 -0.145308D-01
     29  0.867075D-01  0.486079D-01 -0.327363D-03  0.371768D+00  0.428196D+00
     30 -0.813626D-01 -0.601963D-01  0.405408D-03 -0.345339D+00 -0.324433D+00
     31 -0.601963D-01 -0.772945D-02  0.227270D-03  0.252894D-04  0.395295D-04
     32  0.405408D-03  0.227270D-03  0.260149D-01  0.868969D-03  0.135827D-02
     33  0.609458D-01 -0.203882D-02 -0.712363D-04  0.855759D-01  0.967811D-01
     34 -0.803999D-01  0.321294D-02  0.112260D-03 -0.967811D-01 -0.950467D-01
     35  0.321294D-02  0.155358D-01 -0.375544D-05  0.570403D-01  0.760398D-01
     36  0.112260D-03 -0.375544D-05  0.156431D-01 -0.485870D-04 -0.647708D-04
     37  0.769275D-02  0.222553D-03 -0.920293D-05  0.154549D-01  0.201943D-01
     38  0.509137D-01 -0.140337D-01  0.173468D-01  0.446599D-01  0.387620D-01
     39  0.507336D-01 -0.140993D-01 -0.173517D-01  0.445507D-01  0.386356D-01
     40  0.840362D-02  0.715128D-02  0.594921D-05  0.855460D-01  0.967785D-01
     41 -0.867052D-02 -0.912943D-02 -0.759485D-05 -0.967785D-01 -0.950964D-01
     42 -0.912943D-02 -0.571125D-02 -0.646303D-05 -0.569735D-01 -0.759736D-01
     43 -0.759485D-05 -0.646303D-05  0.205767D-02 -0.290420D-03 -0.387273D-03
     44  0.205913D-02  0.116488D-02 -0.943336D-05  0.154512D-01  0.201926D-01
     45  0.348572D-02  0.414697D-02 -0.117706D-02  0.451056D-01  0.389438D-01
     46  0.347931D-02  0.406705D-02  0.119876D-02  0.440568D-01  0.384417D-01
     47 -0.960984D-02  0.310898D-02 -0.730382D-05  0.191012D-02 -0.315965D-02
     48 -0.135202D-01  0.497551D-02 -0.116888D-04  0.315965D-02 -0.505233D-02
     49  0.497551D-02  0.249385D-03  0.378156D-05  0.000000D+00  0.000000D+00
     50 -0.116888D-04  0.378156D-05  0.185905D-02 -0.122232D-05  0.214798D-05
     51 -0.269629D-03  0.661338D-04  0.000000D+00  0.234567D-04 -0.500394D-04
     52 -0.427756D-03  0.112753D-03  0.000000D+00  0.425820D-04 -0.876993D-04
     53  0.112753D-03  0.428512D-05  0.000000D+00  0.000000D+00  0.000000D+00
     54  0.000000D+00  0.000000D+00  0.319406D-04  0.000000D+00  0.000000D+00
     55 -0.428882D+00 -0.114210D-01 -0.325608D-03  0.963766D-01 -0.108522D+00
     56 -0.326021D+00 -0.157353D-01 -0.448609D-03  0.108522D+00 -0.105938D+00
     57 -0.157353D-01  0.264454D+00 -0.119463D-04  0.623339D-01 -0.833378D-01
     58 -0.448609D-03 -0.119463D-04  0.264873D+00 -0.173896D-03  0.232491D-03
     59 -0.467913D-04 -0.301523D-02  0.198938D-04  0.438869D+00 -0.225285D+00
     60  0.999989D+00  0.000000D+00  0.000000D+00  0.225285D+00  0.111093D+00
     61  0.000000D+00  0.999967D+00  0.000000D+00  0.370878D+00 -0.264486D+00
     62  0.000000D+00  0.000000D+00  0.999989D+00 -0.140463D-02  0.100169D-02
     63  0.226966D+00  0.370023D+00 -0.139895D-02  0.999988D+00  0.420776D-02
     64  0.108968D+00 -0.265728D+00  0.100464D-02 -0.420776D-02  0.999936D+00
     65 -0.265728D+00 -0.161257D+00  0.163787D-02  0.111614D-04  0.000000D+00
     66  0.100464D-02  0.163787D-02  0.271955D+00  0.176420D-05  0.000000D+00
     67 -0.124896D-04  0.141312D+00 -0.317355D-03  0.438945D+00 -0.225382D+00
     68  0.460313D-01  0.191726D-04  0.000000D+00  0.225382D+00  0.111043D+00
     69  0.191726D-04 -0.170895D+00  0.487166D-03 -0.370875D+00  0.264561D+00
     70  0.000000D+00  0.487166D-03  0.460302D-01  0.265861D-03 -0.189650D-03
     71 -0.371068D-01  0.635002D-01 -0.972310D-04  0.964070D-01 -0.108567D+00
     72 -0.959056D-02  0.502274D-01 -0.769077D-04  0.108567D+00 -0.106002D+00
     73  0.502274D-01 -0.661931D-01  0.131611D-03 -0.623266D-01  0.833384D-01
     74 -0.769077D-04  0.131611D-03  0.197600D-01 -0.404330D-04  0.540639D-04
     75 -0.110625D+00  0.611876D-01 -0.118438D-03  0.469664D-01 -0.647038D-01
     76 -0.109525D+00  0.825246D-01 -0.159739D-03  0.647038D-01 -0.849990D-01
     77  0.825246D-01 -0.596785D-02  0.883528D-04  0.679399D-05 -0.106930D-04
     78 -0.159739D-03  0.883528D-04  0.396769D-01 -0.493639D-04  0.776931D-04
     79 -0.124284D+00 -0.578049D-01  0.682286D-04  0.130737D-01 -0.143789D-01
     80  0.208013D+00 -0.444162D+00  0.116113D-02  0.123359D+00 -0.164176D-01
     81  0.300377D-02  0.213042D-01 -0.362811D-04  0.123401D+00 -0.164408D-01
     82 -0.457842D-02  0.737120D-02 -0.652975D-05  0.130776D-01 -0.143867D-01
     83  0.867276D-01  0.486223D-01 -0.330166D-03  0.371844D+00  0.428259D+00
     84 -0.813767D-01 -0.602127D-01  0.408869D-03 -0.345386D+00 -0.324434D+00
     85 -0.602127D-01 -0.773261D-02  0.229226D-03  0.280110D-04  0.437826D-04
     86  0.408869D-03  0.229226D-03  0.260230D-01  0.885536D-03  0.138413D-02
     87  0.614177D-01 -0.205768D-02 -0.708668D-04  0.861445D-01  0.973145D-01
     88 -0.809702D-01  0.324187D-02  0.111651D-03 -0.973145D-01 -0.953942D-01
     89  0.324187D-02  0.156849D-01 -0.374064D-05  0.574736D-01  0.765613D-01
     90  0.111651D-03 -0.374064D-05  0.157934D-01 -0.511377D-04 -0.681212D-04
     91  0.762814D-02  0.226897D-03 -0.918214D-05  0.153672D-01  0.200948D-01
[...]
    15  H    0.000017  -0.000001  -0.000000  -0.000245   0.014262   0.005035
    16  C   -0.171643   0.000003   0.000000   0.000105  -0.003550  -0.024600
    17  H   -0.032693   0.000000  -0.000000  -0.000042  -0.000883  -0.002578
    18  H    0.049387  -0.000002   0.000000   0.000213  -0.000071   0.011804
    19  H    1.132203  -0.000003   0.000000   0.000074   0.000450   0.004378
    20  C   -0.000003   4.111016   0.225346   0.056028  -0.000362   0.002355
    21  N    0.000000   0.225346   3.310197  -0.002152   0.000139  -0.000003
    22  C    0.000074   0.056028  -0.002152   5.317935   0.077923   0.059100
    23  C    0.000450  -0.000362   0.000139   0.077923   6.777991   0.186017
    24  C    0.004378   0.002355  -0.000003   0.059100   0.186017   5.686868
    25  C    0.001726  -0.001210   0.000019   0.019886   0.030322  -0.232331
    26  C   -0.000324   0.030619   0.001135  -0.034118  -0.020283   0.044857
    27  C    0.000106   0.057396   0.005759   0.103115   0.013520  -0.020102
    28  H    0.000001  -0.000090  -0.000089   0.109144   0.014427  -0.003796
    29  H    0.000096   0.000020  -0.000003   0.086492   0.232164   0.026512
    30  H    0.000821  -0.000033  -0.000006   0.001615   0.002922  -0.017510
    31  H    0.000273  -0.021109  -0.000950  -0.001565  -0.000278  -0.000394
    32  N   -0.000431  -0.000001   0.000000   0.002512  -0.003147   0.091791
    33  C    0.007429  -0.000005  -0.000000   0.001012  -0.006719   0.024341
    34  H   -0.001711  -0.000000   0.000000  -0.000005   0.002561   0.001334
    35  H   -0.000648   0.000004  -0.000000  -0.001950  -0.001598  -0.015788
    36  H   -0.000020   0.000001  -0.000000  -0.000008   0.011559  -0.011506
    37  C   -0.125471   0.000002  -0.000000   0.000085   0.002789  -0.029733
    38  H   -0.035162  -0.000000  -0.000000  -0.000002   0.000087  -0.003030
    39  H    0.031776  -0.000003   0.000000   0.000116  -0.002034  -0.014356
    40  H    0.702264  -0.000000  -0.000000   0.000016   0.000123   0.004446
    41  C   -0.000002   2.112463  -0.027695   0.023579  -0.003215   0.001743
    42  N    0.000000  -0.115588   0.650871  -0.001443   0.000132  -0.000026
              25         26         27         28         29         30
     1  C    0.005957   0.021864   0.256825   0.047543   0.012394   0.001910
     2  C    0.023951  -0.025405   0.056243  -0.022718   0.150207   0.000190
     3  C   -0.109924   0.036729  -0.001678   0.003556   0.023159   0.012008
     4  C    0.268388   0.008485   0.029627   0.001139   0.012581   0.003983
     5  C    0.354379   2.335485   0.004340  -0.003945   0.001887  -0.012730
     6  C   -0.038885   0.103319   0.608979  -0.057088  -0.005697  -0.002115
     7  H    0.001365   0.002321  -0.068924   0.049016  -0.013692  -0.000014
     8  H    0.001070   0.003009   0.002629   0.002475   0.033290   0.000043
     9  H    0.009497   0.007219  -0.001768  -0.000013  -0.000762   0.039652
    10  H    0.002305  -0.014370   0.049918   0.000371  -0.000126  -0.002712
    11  N   -0.002936   0.000225  -0.000748   0.000016  -0.009034   0.001138
    12  C    0.002504   0.000313   0.000023  -0.000018  -0.022626  -0.000498
    13  H   -0.000375   0.000034   0.000007  -0.000005   0.000114  -0.000204
    14  H   -0.000315  -0.000005  -0.000010  -0.000128   0.025130   0.000120
    15  H   -0.000451  -0.000261  -0.000026  -0.000136  -0.010274   0.000093
    16  C   -0.000480  -0.001752   0.000023  -0.000013   0.000371   0.002145
    17  H   -0.000096   0.000070   0.000002  -0.000000  -0.000078  -0.001160
    18  H    0.014194  -0.000147  -0.000018   0.000008   0.000060   0.008041
    19  H    0.001726  -0.000324   0.000106   0.000001   0.000096   0.000821
    20  C   -0.001210   0.030619   0.057396  -0.000090   0.000020  -0.000033
    21  N    0.000019   0.001135   0.005759  -0.000089  -0.000003  -0.000006
    22  C    0.019886  -0.034118   0.103115   0.109144   0.086492   0.001615
    23  C    0.030322  -0.020283   0.013520   0.014427   0.232164   0.002922
    24  C   -0.232331   0.044857  -0.020102  -0.003796   0.026512  -0.017510
    25  C    3.360039   0.243496   0.048059  -0.001310   0.000725   0.125107
    26  C    0.243496   4.527674   0.079648   0.004189   0.002035  -0.014300
    27  C    0.048059   0.079648   6.755494   0.022658   0.004913  -0.003196
    28  H   -0.001310   0.004189   0.022658   1.132177   0.022301   0.000055
    29  H    0.000725   0.002035   0.004913   0.022301   1.726776   0.001087
    30  H    0.125107  -0.014300  -0.003196   0.000055   0.001087   0.643331
    31  H   -0.004599   0.101262   0.013527   0.000426   0.000088   0.005248
    32  N    0.055773   0.001753  -0.000463   0.000109   0.027886   0.004595
    33  C    0.004654   0.000284  -0.000012  -0.000012   0.055080  -0.000006
    34  H    0.000016  -0.000015   0.000013  -0.000001  -0.000479  -0.000138
    35  H   -0.000653   0.000013  -0.000018  -0.000125  -0.028485  -0.000268
    36  H   -0.000487   0.000071  -0.000048  -0.000120  -0.020872   0.000089
    37  C    0.009171  -0.001058  -0.000049  -0.000003  -0.000076   0.015487
    38  H   -0.001403   0.000037   0.000010  -0.000001   0.000111   0.000590
    39  H   -0.005888  -0.001012   0.000009   0.000012  -0.000002   0.004206
    40  H   -0.002989  -0.000828  -0.000006  -0.000004  -0.000023   0.001761
    41  C   -0.001383  -0.016154   0.058060  -0.005737  -0.000131   0.000197
    42  N   -0.000117  -0.000248   0.017413   0.000052   0.000014   0.000010
              31         32         33         34         35         36
     1  C   -0.000663   0.002115  -0.000301  -0.000027  -0.000710  -0.002056
     2  C    0.000470   0.009320   0.063933   0.000009  -0.024339  -0.013140
     3  C    0.000227  -0.075197  -0.044803   0.001453   0.004106  -0.015657
     4  C    0.001530  -0.051044   0.007552   0.000076  -0.000672  -0.002335
     5  C    0.065235   0.001111   0.000365  -0.000014  -0.000079  -0.000002
     6  C    0.012616  -0.000441  -0.000152   0.000006   0.000161   0.000103
     7  H   -0.000086  -0.000050   0.000079   0.000000  -0.000007  -0.000228
     8  H    0.000108   0.001609   0.008997   0.000225  -0.004779  -0.019430
     9  H    0.004160   0.004742   0.000474   0.000071   0.000060  -0.000337
    10  H    0.331224   0.000059   0.000024   0.000001  -0.000001  -0.000004
    11  N    0.000005   0.293869   0.050065  -0.022595  -0.038503  -0.013921
    12  C    0.000017  -0.012922   1.683838  -0.091972  -0.018229   0.054850
    13  H   -0.000000  -0.006979  -0.034896   0.151120   0.008376   0.000560
    14  H   -0.000003   0.025280   0.020883  -0.023982   0.319983   0.032943
    15  H   -0.000004   0.005887   0.039888   0.024583   0.034816   0.956511
    16  C   -0.000116   0.015530   0.002276   0.004117   0.004149  -0.004749
    17  H    0.000009   0.005693  -0.018138  -0.005495   0.003044   0.000207
    18  H   -0.000057   0.008200   0.003636  -0.000812  -0.000307  -0.000843
    19  H    0.000273  -0.000431   0.007429  -0.001711  -0.000648  -0.000020
    20  C   -0.021109  -0.000001  -0.000005  -0.000000   0.000004   0.000001
    21  N   -0.000950   0.000000  -0.000000   0.000000  -0.000000  -0.000000
    22  C   -0.001565   0.002512   0.001012  -0.000005  -0.001950  -0.000008
    23  C   -0.000278  -0.003147  -0.006719   0.002561  -0.001598   0.011559
    24  C   -0.000394   0.091791   0.024341   0.001334  -0.015788  -0.011506
    25  C   -0.004599   0.055773   0.004654   0.000016  -0.000653  -0.000487
    26  C    0.101262   0.001753   0.000284  -0.000015   0.000013   0.000071
    27  C    0.013527  -0.000463  -0.000012   0.000013  -0.000018  -0.000048
    28  H    0.000426   0.000109  -0.000012  -0.000001  -0.000125  -0.000120
    29  H    0.000088   0.027886   0.055080  -0.000479  -0.028485  -0.020872
    30  H    0.005248   0.004595  -0.000006  -0.000138  -0.000268   0.000089
    31  H    0.479332  -0.000100   0.000008  -0.000001  -0.000002  -0.000005
    32  N   -0.000100   5.160163   0.107078   0.015265   0.007841  -0.052328
    33  C    0.000008   0.107078   3.371901  -0.018894  -0.103179  -0.100293
    34  H   -0.000001   0.015265  -0.018894   0.567636   0.024032  -0.025378
    35  H   -0.000002   0.007841  -0.103179   0.024032   0.853808  -0.003295
    36  H   -0.000005  -0.052328  -0.100293  -0.025378  -0.003295   1.538118
    37  C   -0.000112  -0.034021  -0.015852  -0.002848   0.002336   0.000313
    38  H    0.000013   0.015658  -0.011491   0.011362  -0.000110  -0.001996
    39  H    0.000211  -0.018160  -0.003064  -0.004338  -0.000074  -0.001837
    40  H    0.000107  -0.006537   0.002527  -0.004653  -0.000508  -0.000310
    41  C   -0.007633  -0.000005  -0.000003   0.000000   0.000002  -0.000003
    42  N   -0.000389  -0.000000   0.000000   0.000000  -0.000000  -0.000000
              37         38         39         40         41         42
     1  C    0.000085  -0.000016  -0.000062  -0.000001   0.000396   0.000312
     2  C    0.003326   0.000122  -0.000546   0.000740   0.002213   0.000081
     3  C   -0.058927  -0.001077  -0.017160  -0.006915  -0.000284   0.000053
     4  C    0.018491  -0.000221  -0.005402  -0.003066  -0.000282  -0.000059
     5  C   -0.000061  -0.000033  -0.000338   0.000132  -0.003097   0.001443
     6  C    0.000200  -0.000002  -0.000144   0.000025   0.098607  -0.014566
     7  H    0.000003  -0.000002  -0.000006  -0.000001   0.007089   0.000232
     8  H    0.000113  -0.000027  -0.000058  -0.000247  -0.000381   0.000009
     9  H   -0.002087  -0.000220   0.003088  -0.001098   0.000090  -0.000001
    10  H   -0.000441   0.000014  -0.000190  -0.000071  -0.013628   0.000177
    11  N    0.101462   0.020699   0.015742  -0.007867  -0.000002  -0.000000
    12  C   -0.017877  -0.023395   0.001847   0.003549  -0.000004  -0.000000
    13  H   -0.000730   0.015292  -0.001152  -0.003528  -0.000000   0.000000
    14  H    0.002998  -0.001859   0.000071  -0.000339   0.000001  -0.000000
    15  H   -0.001454  -0.001532  -0.002589  -0.000232  -0.000001   0.000000
    16  C    1.151187  -0.010885   0.046311  -0.154209   0.000000   0.000000
    17  H   -0.033572   0.360225   0.012197   0.014659  -0.000000  -0.000000
    18  H    0.024004  -0.008726   0.469646   0.032002  -0.000003   0.000000
    19  H   -0.125471  -0.035162   0.031776   0.702264  -0.000002   0.000000
    20  C    0.000002  -0.000000  -0.000003  -0.000000   2.112463  -0.115588
    21  N   -0.000000  -0.000000   0.000000  -0.000000  -0.027695   0.650871
    22  C    0.000085  -0.000002   0.000116   0.000016   0.023579  -0.001443
    23  C    0.002789   0.000087  -0.002034   0.000123  -0.003215   0.000132
    24  C   -0.029733  -0.003030  -0.014356   0.004446   0.001743  -0.000026
    25  C    0.009171  -0.001403  -0.005888  -0.002989  -0.001383  -0.000117
    26  C   -0.001058   0.000037  -0.001012  -0.000828  -0.016154  -0.000248
    27  C   -0.000049   0.000010   0.000009  -0.000006   0.058060   0.017413
    28  H   -0.000003  -0.000001   0.000012  -0.000004  -0.005737   0.000052
    29  H   -0.000076   0.000111  -0.000002  -0.000023  -0.000131   0.000014
    30  H    0.015487   0.000590   0.004206   0.001761   0.000197   0.000010
    31  H   -0.000112   0.000013   0.000211   0.000107  -0.007633  -0.000389
    32  N   -0.034021   0.015658  -0.018160  -0.006537  -0.000005  -0.000000
    33  C   -0.015852  -0.011491  -0.003064   0.002527  -0.000003   0.000000
    34  H   -0.002848   0.011362  -0.004338  -0.004653   0.000000   0.000000
    35  H    0.002336  -0.000110  -0.000074  -0.000508   0.000002  -0.000000
    36  H    0.000313  -0.001996  -0.001837  -0.000310  -0.000003  -0.000000
    37  C    2.667141  -0.159026  -0.026414  -0.125602   0.000003   0.000000
    38  H   -0.159026   1.033379  -0.000172  -0.022080   0.000000  -0.000000
    39  H   -0.026414  -0.000172   1.310223   0.061266  -0.000002   0.000000
    40  H   -0.125602  -0.022080   0.061266   0.910081  -0.000002   0.000000
    41  C    0.000003   0.000000  -0.000002  -0.000002   3.864320   0.280555
    42  N    0.000000  -0.000000   0.000000   0.000000   0.280555   5.225227
 Mulliken charges:
               1
     1  C   -2.489357
     2  C   -3.319870
     3  C   -2.274781
     4  C   -0.430633
     5  C   -4.985753
     6  C   -3.424409
     7  H    0.319604
     8  H   -0.977404
     9  H    0.166111
    10  H   -0.408816
    11  N   -0.268006
    12  C   -1.317642
    13  H    0.265808
    14  H   -0.106020
    15  H   -1.754320
    16  C    0.690630
    17  H   -0.195102
    18  H   -0.765057
    19  H   -0.556377
    20  C   -2.586680
    21  N    0.814753
    22  C   -3.163763
    23  C   -4.634911
    24  C   -2.228712
    25  C   -0.176766
    26  C   -3.425865
    27  C   -4.091251
    28  H   -0.314321
    29  H   -1.333136
    30  H    0.178445
    31  H    0.021973
    32  N   -0.602014
    33  C   -1.098504
    34  H    0.399478
    35  H   -0.018402
    36  H   -1.304116
    37  C    0.636219
    38  H   -0.175131
    39  H   -0.851717
    40  H   -0.392580
    41  C   -2.369668
    42  N   -1.044141
 Sum of Mulliken charges = -49.59220
 Mulliken charges with hydrogens summed into heavy atoms:
               1
     1  C   -2.489357
     2  C   -3.319870
     3  C   -2.274781
     4  C   -0.430633
     5  C   -4.985753
     6  C   -3.424409
    11  N   -0.268006
    12  C   -0.652355
    16  C    0.320397
    20  C   -2.586680
    21  N    0.814753
    22  C   -3.158480
    23  C   -6.945451
    24  C   -2.228712
    25  C    0.167790
    26  C   -3.812707
    27  C   -4.091251
    32  N   -0.602014
    33  C   -4.281361
    37  C   -1.929512
    41  C   -2.369668
    42  N   -1.044141
 N-N= 1.094429475562D+05 E-N=-4.329963823057D+03  KE= 1.719292511105D+02
 Orbital energies and kinetic energies (alpha):
                                 1                 2
   1         O               -15.060958          1.783397
   2         O               -13.380178          2.230894
   3         O               -11.000744          1.443512
   4         O               -10.526564          1.138167
   5         O                -9.174788          1.029147
   6         O                -8.581827          1.671887
   7         O                -7.864214          1.814824
   8         O                -7.241185          1.282829
   9         O                -6.640166          2.203612
  10         O                -6.134595          2.549202
  11         O                -5.941614          1.797732
  12         O                -5.405254          2.469678
  13         O                -5.345954          1.923223
  14         O                -5.089523          1.358441
  15         O                -4.895172          1.058421
  16         O                -4.853766          0.854032
  17         O                -4.647043          2.161044
  18         O                -4.412790          1.005692
  19         O                -4.175082          1.734384
  20         O                -4.082939          1.911902
  21         O                -4.010614          2.577581
  22         O                -3.766588          1.450463
  23         O                -3.636446          2.062098
  24         O                -3.550314          1.210993
  25         O                -3.156132          2.018968
  26         O                -2.350330          2.469215
  27         O                -2.302139          1.701665
  28         O                -2.285908          2.215402
  29         O                -2.130567          1.673740
  30         O                -2.056399          1.611096
  31         O                -1.608220          2.768688
  32         O                -1.550069          0.812215
  33         O                -1.491232          1.650660
  34         O                -1.240240          0.898474
  35         O                -1.123578          0.897515
  36         O                -1.021522          1.818396
  37         O                -0.906952          1.888978
  38         O                -0.839105          0.711482
  39         O                -0.758382          2.079058
  40         O                -0.749462          2.118576
  41         O                -0.747878          1.399609
  42         O                -0.702551          2.478353
  43         O                -0.687801          1.387778
  44         O                -0.667045          0.910438
  45         O                -0.621437          1.491226
  46         O                -0.608038          1.012561
  47         O                -0.585992          1.812262
  48         O                -0.578718          1.286030
  49         O                -0.572263          1.405536
  50         O                -0.550016          0.005654
  51         O                -0.514653          0.006310
  52         O                -0.407609          0.894852
  53         O                -0.351421          1.202851
  54         O                -0.272124          1.084986
  55         O                -0.000141          0.762352
  56         O                -0.000107          0.766542
  57         V                -0.000104          0.756247
  58         V                -0.000068          0.011687
  59         V                -0.000067          0.000337
  60         V                -0.000040          0.001243
  61         V                -0.000039          0.132881
  62         V                -0.000032          0.694016
  63         V                -0.000001          0.805690
  64         V                -0.000000          0.726994
  65         V                -0.000000          0.694151
  66         V                 0.000000          0.359280
  67         V                 0.000000          0.279938
  68         V                 0.000000          0.010418
  69         V                 0.000001          0.199459
  70         V                 0.000001          0.227918
  71         V                 0.000001          0.759891
  72         V                 0.000001          1.127485
  73         V                 0.000001          1.047813
  74         V                 0.000002          1.409503
  75         V                 0.000002          0.811936
  76         V                 0.000002          0.201528
  77         V                 0.000002          0.651273
  78         V                 0.000002          1.194356
  79         V                 0.000003          0.611695
  80         V                 0.000003          0.601330
  81         V                 0.000003          0.887346
  82         V                 0.000004          0.257997
  83         V                 0.000004          0.576219
  84         V                 0.000004          0.940036
  85         V                 0.000004          0.589120
  86         V                 0.000004          0.739285
  87         V                 0.000005          0.504875
  88         V                 0.000006          0.000181
  89         V                 0.000006          0.000143
  90         V                 0.000007          0.000000
  91         V                 0.000032          0.000000
  92         V                 0.000034          0.000000
  93         V                 0.000090          0.000000
  94         V                 0.000091          0.000000
  95         V                 0.000215          0.000000
  96         V                 0.000215          0.000000
  97         V                 0.000541          0.000000
  98         V                 0.000549          0.000000
 Total kinetic energy from orbitals= 1.719292511105D+02

 This type of calculation cannot be archived.


 UNLESS WE CHANGE DIRECTIONS, WE WILL WIND UP WHERE WE ARE HEADED.
     -- CONFUCIUS
 Job cpu time:       0 days  0 hours  0 minutes 30.8 seconds.
 Elapsed time:       0 days  0 hours  0 minutes  3.2 seconds.
 File lengths (MBytes):  RWF=    272 Int=      0 D2E=      0 Chk=     32 Scr=     32
 Normal termination of Gaussian 16 at Thu Feb  2 19:07:48 2023.
