12
MD Step 0.0 Units = [eV / Ang.]
C  -1.57591366 -1.06112605 -0.85530647
C  1.83480534 -3.66484382 -0.11242989
C  3.30656073 0.51186796 -0.00077237
C  -0.43874908 4.61038429 0.22171803
C  -1.56487343 1.31082245 -0.38601277
C  -1.56218879 -0.19616818 0.76966454
H  0.89231090 0.20297675 0.27376190
H  -1.29135670 0.57121659 0.23232437
H  -0.61545691 0.09581782 -0.00837761
H  -0.14643782 -2.30229881 -0.05381337
H  0.81259404 -0.34768411 0.10169557
H  0.34870538 0.26903512 -0.18245194
12
MD Step 0.5 Units = [eV / Ang.]
C  -1.53372911 -1.20497758 -0.90144220
C  1.62390156 -3.40409638 -0.09989904
C  2.94773449 0.45698981 -0.03599341
C  -0.52100921 3.99459888 0.20871048
C  -1.73598411 1.36764360 -0.31434985
C  -1.20550294 -0.29210769 0.72188371
H  1.04508872 0.36512901 0.30889787
H  -1.23338197 0.46255485 0.23382465
H  -0.30254056 0.05637876 0.00872716
H  -0.02080313 -1.78447793 -0.04589575
H  0.83929121 -0.39728534 0.06847275
H  0.09682057 0.38011032 -0.15306247
12
MD Step 1.0 Units = [eV / Ang.]
C  -1.41785769 -1.27422210 -0.93342926
C  1.33993965 -3.02643522 -0.07200161
C  2.48196234 0.39719145 -0.06951551
C  -0.67770303 3.13683284 0.18829665
C  -1.84825685 1.37128242 -0.23374279
C  -0.81586794 -0.37614205 0.66506738
H  1.14190446 0.46391622 0.33209215
H  -1.10760586 0.27802972 0.22020166
H  0.07139568 0.01829097 0.02172232
H  0.19056679 -1.06980904 -0.03110772
H  0.82171791 -0.39725948 0.03155461
H  -0.18041391 0.47923460 -0.11939253
12
MD Step 1.5 Units = [eV / Ang.]
C  -1.23413982 -1.26741240 -0.95043784
C  0.98761767 -2.54198583 -0.02842406
C  1.94465020 0.33050954 -0.09894711
C  -0.92433784 2.04254920 0.15725577
C  -1.89912361 1.32590334 -0.14673538
C  -0.41956084 -0.45054427 0.60308643
H  1.18064188 0.49794831 0.34283449
H  -0.91634168 0.02126224 0.19007651
H  0.47706312 -0.01613904 0.02925064
H  0.50105496 -0.15795673 -0.00678243
H  0.76044232 -0.34801729 -0.00669726
H  -0.45832270 0.56511128 -0.08485482
12
MD Step 2.0 Units = [eV / Ang.]
C  -0.99035191 -1.18522218 -0.95174129
C  0.57628898 -1.96766145 0.03013681
C  1.38578520 0.25432586 -0.12277999
C  -1.25684967 0.76885524 0.11349477
C  -1.88890128 1.23782290 -0.05615720
C  -0.04771512 -0.51908302 0.54059681
H  1.16100969 0.46758535 0.34112258
H  -0.66687693 -0.29827629 0.14310637
H  0.87273563 -0.04477863 0.03073408
H  0.90433822 0.90200926 0.02841082
H  0.65814044 -0.25244803 -0.04359309
H  -0.70807570 0.63802109 -0.05373681
12
MD Step 2.5 Units = [eV / Ang.]
C  -0.69494686 -1.03042320 -0.93708166
C  0.12277024 -1.33152746 0.10098279
C  0.86643246 0.16639232 -0.14081249
C  -1.62966333 -0.54820136 0.05819516
C  -1.82203751 1.11574226 0.03467791
C  0.26673729 -0.58656831 0.48259410
H  1.08418371 0.37422760 0.32702028
H  -0.37442448 -0.66149087 0.08139153
H  1.20815800 -0.06666455 0.02778161
H  1.35299592 1.98618994 0.07223584
H  0.51962284 -0.11647889 -0.07712253
H  -0.90079991 0.70030469 -0.03051749
12
MD Step 3.0 Units = [eV / Ang.]
C  -0.35687007 -0.80719057 -0.90640850
C  -0.34603074 -0.67502440 0.17825081
C  0.44808823 0.06685318 -0.15489321
C  -1.94133135 -1.69581158 -0.00131629
C  -1.70735381 0.97001669 0.12257776
C  0.49569350 -0.65791108 0.43321473
H  0.95266035 0.22082493 0.30122067
H  -0.06487296 -1.03568277 0.01025097
H  1.43238194 -0.08168208 0.02318613
H  1.74500191 2.89264168 0.11661976
H  0.35275475 0.05044418 -0.10484370
H  -1.01209030 0.75427956 -0.01889632
12
MD Step 3.5 Units = [eV / Ang.]
C  0.01388628 -0.52282739 -0.86068010
C  -0.79354910 -0.05271625 0.25228467
C  0.17912576 -0.04092040 -0.16835844
C  -2.05328907 -2.44555152 -0.05190255
C  -1.55789441 0.81315242 0.20500411
C  0.62125684 -0.73660924 0.39503154
H  0.77186047 0.01344525 0.26507666
H  0.22546573 -1.37443556 -0.06097375
H  1.50704789 -0.09117485 0.02111003
H  1.94178937 3.40265730 0.14810211
H  0.16865802 0.23451213 -0.12508000
H  -1.02764551 0.80194331 -0.02099117
12
MD Step 4.0 Units = [eV / Ang.]
C  0.40487259 -0.19057705 -0.80237867
C  -1.17842464 0.47395789 0.31093103
C  0.08219905 -0.15018354 -0.18528987
C  -1.85320125 -2.66324660 -0.07992132
C  -1.38909843 0.66045082 0.28028956
C  0.63917719 -0.82316023 0.36878029
H  0.55154106 -0.23667137 0.22117337
H  0.45531118 -1.62329998 -0.11989529
H  1.41807955 -0.09775196 0.02613527
H  1.83009012 3.38954756 0.15296443
H  -0.01891161 0.41756573 -0.13774261
H  -0.94657667 0.84416058 -0.03673666
12
MD Step 4.5 Units = [eV / Ang.]
C  0.79925963 0.16887461 -0.73554974
C  -1.46411341 0.84974917 0.34174851
C  0.14842831 -0.25161021 -0.20867337
C  -1.32516364 -2.38646192 -0.07944941
C  -1.21590154 0.52927533 0.34852201
C  0.55986564 -0.91473284 0.35263708
H  0.30750969 -0.51062981 0.17368351
H  0.58832363 -1.73230747 -0.15375592
H  1.18028710 -0.10394738 0.04103054
H  1.39191199 2.89364892 0.12582493
H  -0.19421890 0.57836404 -0.14377110
H  -0.78132088 0.87967947 -0.06372864
12
MD Step 5.0 Units = [eV / Ang.]
C  1.17517475 0.52582115 -0.66597559
C  -1.63097051 1.04164945 0.33588969
C  0.34221454 -0.33588626 -0.23926055
C  -0.56356546 -1.79603739 -0.05561588
C  -1.05020584 0.43752757 0.41157615
C  0.40491187 -1.00587133 0.34352394
H  0.06121794 -0.78121219 0.12782555
H  0.60564115 -1.67136031 -0.15329224
H  0.83207364 -0.11228751 0.06700536
H  0.71564475 2.09582037 0.07189055
H  -0.34296872 0.69509766 -0.14683117
H  -0.55406839 0.90612945 -0.09797237
12
MD Step 5.5 Units = [eV / Ang.]
C  1.50664775 0.84350069 -0.60044811
C  -1.68261968 1.04928967 0.29161599
C  0.61307636 -0.39570686 -0.27564443
C  0.28160747 -1.10939515 -0.02052335
C  -0.89924907 0.40033558 0.47263538
C  0.20218014 -1.09002864 0.33756693
H  -0.16119030 -1.01362154 0.08983904
H  0.51195112 -1.44133935 -0.11620846
H  0.42382441 -0.12386500 0.10245569
H  -0.05557019 1.21079342 0.00366051
H  -0.45357501 0.74926855 -0.15117459
H  -0.29176592 0.91992325 -0.13484632
12
MD Step 6.0 Units = [eV / Ang.]
C  1.76757930 1.08326895 -0.54519242
C  -1.64426666 0.90468786 0.21453778
C  0.90899948 -0.42703473 -0.31467030
C  1.07605938 -0.48840531 0.01352387
C  -0.76467121 0.42613752 0.53546476
C  -0.01942451 -1.16113504 0.33095609
H  -0.33317562 -1.17058505 0.06545340
H  0.33362151 -1.07443316 -0.04797553
H  0.00559370 -0.13854521 0.14401620
H  -0.79394105 0.39776068 -0.06606436
H  -0.51963389 0.72980121 -0.16092696
H  -0.02134083 0.91753839 -0.17011555
12
MD Step 6.5 Units = [eV / Ang.]
C  1.93771605 1.21294179 -0.50434640
C  -1.55283040 0.66057258 0.11571287
C  1.18589611 -0.42903239 -0.35254946
C  1.73747724 -0.01294832 0.03857024
C  -0.64249791 0.51399468 0.60296152
C  -0.23408611 -1.21472393 0.32054267
H  -0.43413223 -1.22068745 0.05828603
H  0.10885989 -0.62296641 0.04047431
H  -0.38163027 -0.15539993 0.18777192
H  -1.42236472 -0.26493439 -0.12898026
H  -0.54117815 0.63583531 -0.17920714
H  0.23382994 0.89630965 -0.20028716
12
MD Step 7.0 Units = [eV / Ang.]
C  2.00821032 1.21587989 -0.47843199
C  -1.44515027 0.37391147 0.00768985
C  1.41193956 -0.40315808 -0.38525275
C  2.23432821 0.30040347 0.05083160
C  -0.52454502 0.65277578 0.67648187
C  -0.42082616 -1.24811401 0.30422241
H  -0.45523047 -1.14723370 0.06831682
H  -0.12418316 -0.14339804 0.13633099
H  -0.70929666 -0.17315979 0.22994821
H  -1.91280817 -0.76094151 -0.18130685
H  -0.52423970 0.47700272 -0.20724407
H  0.45554578 0.85475649 -0.22296597
12
MD Step 7.5 Units = [eV / Ang.]
C  1.98447833 1.09655196 -0.46429222
C  -1.34986764 0.09413568 -0.09848246
C  1.56606513 -0.35222003 -0.40989918
C  2.56762890 0.46722947 0.05053685
C  -0.40021850 0.82349608 0.75534978
C  -0.56356401 -1.26075350 0.28079558
H  -0.40169706 -0.95400065 0.09199271
H  -0.33559176 0.31532742 0.22824606
H  -0.95968126 -0.19030129 0.26720701
H  -2.26675634 -1.10531394 -0.22270842
H  -0.47872370 0.27155141 -0.24384778
H  0.63050237 0.79287408 -0.23670447
12
MD Step 8.0 Units = [eV / Ang.]
C  1.88403184 0.87905263 -0.45629061
C  -1.28362412 -0.14267097 -0.19496536
C  1.63568867 -0.28099253 -0.42439653
C  2.75266600 0.51310928 0.03905074
C  -0.25972652 1.00198037 0.83734606
C  -0.65071821 -1.25208371 0.24961634
H  -0.29109529 -0.66472079 0.12356148
H  -0.50651546 0.71790738 0.30802526
H  -1.12333615 -0.20537108 0.29697539
H  -2.49791219 -1.32193475 -0.25404699
H  -0.41625121 0.04247277 -0.28566780
H  0.74975716 0.71199550 -0.24124650
12
MD Step 8.5 Units = [eV / Ang.]
C  1.73066127 0.59999345 -0.44780043
C  -1.25337349 -0.31416042 -0.27745978
C  1.61396150 -0.19502363 -0.42701784
C  2.80737328 0.46090058 0.01796513
C  -0.09563615 1.16381975 0.91908191
C  -0.67491275 -1.22252214 0.21065688
H  -0.14847765 -0.31420538 0.15513088
H  -0.62776606 1.04655851 0.37131490
H  -1.19727143 -0.21784311 0.31831277
H  -2.62349689 -1.43314602 -0.27714832
H  -0.34841650 -0.18875644 -0.33008724
H  0.80889770 0.61294160 -0.23618275
12
MD Step 9.0 Units = [eV / Ang.]
C  1.54876112 0.29925602 -0.43331283
C  -1.25888651 -0.40853508 -0.34396029
C  1.49788167 -0.10046961 -0.41679039
C  2.74528426 0.32619330 -0.01131638
C  0.09560541 1.28784075 0.99669443
C  -0.63217877 -1.17269623 0.16434866
H  0.00206167 0.05659783 0.18144959
H  -0.69678446 1.28888186 0.41571227
H  -1.17901722 -0.22622876 0.32876780
H  -2.65115877 -1.45079739 -0.29193989
H  -0.28397784 -0.40083353 -0.37186996
H  0.80492429 0.49941701 -0.22222412
12
MD Step 9.5 Units = [eV / Ang.]
C  1.35874765 0.01171315 -0.40933359
C  -1.29678556 -0.41972365 -0.39357084
C  1.28702654 -0.00386353 -0.39334444
C  2.57327255 0.11546286 -0.04826427
C  0.31416567 1.35750359 1.06666783
C  -0.52219592 -1.10355527 0.11145457
H  0.14044960 0.41098911 0.19911086
H  -0.71475772 1.43987765 0.44063459
H  -1.06888950 -0.22954535 0.32672147
H  -2.58365471 -1.37858130 -0.29775897
H  -0.22954496 -0.57734019 -0.40687306
H  0.73838804 0.37592522 -0.20050868
12
MD Step 10.0 Units = [eV / Ang.]
C  1.17423398 -0.23710892 -0.37423642
C  -1.36234541 -0.34285308 -0.42663094
C  0.98282785 0.08772151 -0.35628217
C  2.29115536 -0.17458859 -0.09358345
C  0.55669715 1.35999958 1.12623577
C  -0.34802776 -1.01554464 0.05323226
H  0.25208682 0.72406896 0.20502944
H  -0.68315289 1.50091760 0.44643273
H  -0.86973515 -0.22788468 0.31212748
H  -2.41676904 -1.21119257 -0.29371739
H  -0.18954178 -0.70920005 -0.43364777
H  0.61345613 0.24436099 -0.17146642
12
MD Step 10.5 Units = [eV / Ang.]
C  1.00411674 -0.43102133 -0.32835768
C  -1.45149333 -0.17582530 -0.44257434
C  0.59307891 0.16908504 -0.30631494
C  1.89220329 -0.55483227 -0.14842389
C  0.81757491 1.28906147 1.17294105
C  -0.11817363 -0.91049074 -0.00883303
H  0.32975354 0.97552725 0.20048350
H  -0.60493502 1.46892169 0.43337288
H  -0.58787615 -0.22053597 0.28371410
H  -2.13972968 -0.93497801 -0.27668768
H  -0.16603977 -0.78818846 -0.44888621
H  0.43804531 0.11158189 -0.13755507
12
MD Step 11.0 Units = [eV / Ang.]
C  0.85277297 -0.56178482 -0.27307599
C  -1.56128779 0.08381430 -0.44107049
C  0.13214543 0.23644316 -0.24462073
C  1.36669214 -1.04234527 -0.21520297
C  1.08995355 1.14179891 1.20521814
C  0.15365017 -0.79046217 -0.07280175
H  0.37005384 1.15587517 0.18646628
H  -0.48203729 1.34431394 0.40198203
H  -0.23666455 -0.20804083 0.24249816
H  -1.73961485 -0.53138868 -0.24379826
H  -0.15982387 -0.81212248 -0.45188199
H  0.22524994 -0.01848970 -0.10078684
12
MD Step 11.5 Units = [eV / Ang.]
C  0.72170445 -0.62655503 -0.21021686
C  -1.68911226 0.43691660 -0.42193330
C  -0.37526680 0.28810497 -0.17387950
C  0.70958882 -1.65260669 -0.29618263
C  1.36591167 0.91865708 1.22201486
C  0.44814463 -0.65757323 -0.13633975
H  0.37202168 1.26159569 0.16384598
H  -0.31577862 1.12829772 0.35243584
H  0.16149330 -0.19163794 0.19135734
H  -1.20622067 0.01708145 -0.19244803
H  -0.17039634 -0.78209249 -0.44278630
H  -0.00717672 -0.14380731 -0.06306939
12
MD Step 12.0 Units = [eV / Ang.]
C  0.61127944 -0.62519014 -0.14216012
C  -1.83119269 0.87892013 -0.38545254
C  -0.89127971 0.32483330 -0.09871260
C  -0.06533337 -2.38412782 -0.39168311
C  1.63651145 0.62423782 1.22295879
C  0.74078919 -0.51430449 -0.19698947
H  0.33664674 1.29082653 0.13493944
H  -0.11000402 0.82450330 0.28586459
H  0.57172584 -0.17296545 0.13472360
H  -0.54870873 0.71042168 -0.12199267
H  -0.19622952 -0.70094170 -0.42165643
H  -0.23667481 -0.26161015 -0.02712207
12
MD Step 12.5 Units = [eV / Ang.]
C  0.52079979 -0.55917898 -0.07119811
C  -1.98012325 1.39711369 -0.33405244
C  -1.36690513 0.34809653 -0.02553918
C  -0.90733737 -3.19448211 -0.49697802
C  1.89149533 0.26610056 1.20828368
C  1.00466406 -0.36195038 -0.25255460
H  0.26501573 1.24392006 0.10140932
H  0.12859286 0.44433718 0.20484435
H  0.94828218 -0.15429249 0.07954408
H  0.18889109 1.50856655 -0.03700826
H  -0.23459016 -0.57469590 -0.38963722
H  -0.43855609 -0.37196795 0.00496965
12
MD Step 13.0 Units = [eV / Ang.]
C  0.44883525 -0.43103075 0.00009732
C  -2.12196590 1.96520111 -0.27288200
C  -1.74774149 0.35896730 0.03774850
C  -1.71599417 -3.97706825 -0.59967523
C  2.11916069 -0.14401411 1.17931661
C  1.21410232 -0.20086961 -0.30139267
H  0.15920509 1.12204088 0.06584140
H  0.38633487 0.01193835 0.11505462
H  1.23918125 -0.13787275 0.03376788
H  0.91160626 2.30686853 0.05027430
H  -0.28143522 -0.41239636 -0.34844324
H  -0.58885220 -0.47511262 0.03130279
12
MD Step 13.5 Units = [eV / Ang.]
C  0.39251658 -0.24517169 0.06908129
C  -2.23465555 2.54042853 -0.21083271
C  -1.98550850 0.35652465 0.08385281
C  -2.35281080 -4.55955236 -0.67997422
C  2.30687085 -0.59022919 1.13848864
C  1.34930804 -0.03038679 -0.34282217
H  0.02200803 0.92866855 0.03062065
H  0.64223935 -0.43203727 0.02560161
H  1.39766690 -0.12537304 0.00496437
H  1.48642801 2.93540062 0.12006038
H  -0.33099585 -0.22696704 -0.30092572
H  -0.66919901 -0.57273731 0.05115295
12
MD Step 14.0 Units = [eV / Ang.]
C  0.34667327 -0.00965561 0.13329074
C  -2.28891244 3.06423561 -0.15980225
C  -2.05065486 0.33795323 0.10810870
C  -2.68987677 -4.75182906 -0.71680549
C  2.44233796 -1.05182625 1.08892381
C  1.40007590 0.15001360 -0.37725072
H  -0.14205799 0.67098742 -0.00214293
H  0.86848474 -0.83136032 -0.05163273
H  1.39461746 -0.11713430 -0.00171574
H  1.78929640 3.20537965 0.15134492
H  -0.37562899 -0.03494940 -0.25080513
H  -0.67047417 -0.66665302 0.06495505
12
MD Step 14.5 Units = [eV / Ang.]
C  0.30350838 0.26207942 0.19028177
C  -2.25286570 3.47105768 -0.13229428
C  -1.94166916 0.29909967 0.10983549
C  -2.67630244 -4.43814769 -0.69896570
C  2.51477282 -1.50403515 1.03557960
C  1.36802762 0.33977460 -0.40601599
H  -0.32400514 0.36335586 -0.02896944
H  1.03301646 -1.12205611 -0.10322220
H  1.22844411 -0.11208652 0.01386431
H  1.76772424 3.00099978 0.13293281
H  -0.40669482 0.14389444 -0.20268569
H  -0.59461467 -0.75572736 0.07327058
12
MD Step 15.0 Units = [eV / Ang.]
C  0.25172202 0.54861044 0.23841695
C  -2.09951183 3.70600051 -0.13762518
C  -1.68617069 0.23559855 0.09247917
C  -2.36867007 -3.64873897 -0.63204742
C  2.51599111 -1.92100839 0.98396136
C  1.26595312 0.53733591 -0.43093362
H  -0.51006523 0.03000397 -0.04640388
H  1.10885349 -1.24997635 -0.11842628
H  0.92746990 -0.10831013 0.04745759
H  1.47482204 2.35368569 0.07053960
H  -0.41575848 0.28909868 -0.16169049
H  -0.45480430 -0.83691166 0.07667922
12
MD Step 15.5 Units = [eV / Ang.]
C  0.17593258 0.82090705 0.27777817
C  -1.81572592 3.74252418 -0.17854620
C  -1.33229124 0.14488115 0.06290537
C  -1.89494529 -2.54412973 -0.53533898
C  2.44110803 -2.28097600 0.93874941
C  1.11448931 0.74023732 -0.45388391
H  -0.68428531 -0.29757106 -0.05437110
H  1.08478626 -1.19017600 -0.09459460
H  0.53951609 -0.10363851 0.09192700
H  1.03808025 1.42373230 -0.01671686
H  -0.39497325 0.38366415 -0.13207695
H  -0.27178689 -0.90830851 0.07704677
12
MD Step 16.0 Units = [eV / Ang.]
C  0.05775014 1.04425368 0.31050314
C  -1.40573263 3.59204683 -0.24970732
C  -0.93550648 0.02606579 0.02914513
C  -1.38434195 -1.32783884 -0.43105902
C  2.28777488 -2.57023993 0.90249677
C  0.93697735 0.94594458 -0.47622077
H  -0.82983285 -0.58508836 -0.05766659
H  0.96784058 -0.95404079 -0.03885046
H  0.11493919 -0.09616577 0.13986217
H  0.58795512 0.40531732 -0.10739465
H  -0.33749270 0.41747575 -0.11581853
H  -0.06780103 -0.96890854 0.07745464
12
MD Step 16.5 Units = [eV / Ang.]
C  -0.11899389 1.18490969 0.34044949
C  -0.89327172 3.29719977 -0.33964155
C  -0.54501633 -0.11682868 -0.00176861
C  -0.92124338 -0.16613308 -0.33553280
C  2.05937661 -2.78231707 0.87664630
C  0.75577020 1.14880704 -0.49876503
H  -0.92658811 -0.79499190 -0.05875478
H  0.77858447 -0.58597393 0.03759160
H  -0.29759586 -0.08530216 0.18394197
H  0.20557161 -0.54012401 -0.18592897
H  -0.24279029 0.38815223 -0.11311051
H  0.13484925 -1.01406585 0.07791278
12
MD Step 17.0 Units = [eV / Ang.]
C  -0.36807666 1.21641172 0.37254183
C  -0.30688001 2.92103281 -0.43437297
C  -0.20141201 -0.28350317 -0.02499998
C  -0.53758750 0.84883548 -0.25642002
C  1.75803046 -2.92520664 0.85859974
C  0.59115049 1.34836452 -0.52100497
H  -0.96055295 -0.90157554 -0.06677726
H  0.54571435 -0.14408995 0.11864730
H  -0.66674342 -0.07054488 0.21986273
H  -0.07474759 -1.33682728 -0.24527790
H  -0.11157139 0.30222952 -0.12104906
H  0.31926774 -1.04148036 0.08094661
12
MD Step 17.5 Units = [eV / Ang.]
C  -0.69116277 1.12908749 0.41134760
C  0.31761319 2.52388743 -0.52162716
C  0.06893909 -0.46804866 -0.03820177
C  -0.23207070 1.68225541 -0.19512908
C  1.39408076 -3.01081022 0.84536099
C  0.45816137 1.53987202 -0.54220136
H  -0.92245903 -0.88992628 -0.08454453
H  0.29863950 0.30967889 0.19264121
H  -0.96552303 -0.05282334 0.24436627
H  -0.25491892 -1.95118425 -0.28409827
H  0.04656176 0.17328047 -0.13592572
H  0.47005286 -1.04685774 0.08521874
12
MD Step 18.0 Units = [eV / Ang.]
C  -1.07907858 0.93258741 0.45948252
C  0.94870934 2.15345174 -0.59281663
C  0.24896358 -0.66467342 -0.04061140
C  0.01183922 2.33700898 -0.14987527
C  0.97982708 -3.05697274 0.83218473
C  0.36782119 1.71990281 -0.56073783
H  -0.81454438 -0.76682743 -0.11650656
H  0.06146313 0.72744657 0.24998779
H  -1.18022362 -0.03283107 0.25636719
H  -0.34933344 -2.39278796 -0.30427370
H  0.22094867 0.01923734 -0.15279846
H  0.57704339 -1.02764571 0.09102986
12
MD Step 18.5 Units = [eV / Ang.]
C  -1.50962622 0.65426762 0.51679094
C  1.55704182 1.83919665 -0.64343816
C  0.32918895 -0.86440635 -0.03299451
C  0.21189416 2.82815770 -0.11792339
C  0.53225563 -3.08013022 0.81474627
C  0.32696025 1.88270946 -0.57481472
H  -0.64872419 -0.55583029 -0.16260564
H  -0.14792176 1.07516839 0.28605957
H  -1.30117559 -0.01168022 0.25566091
H  -0.37526306 -2.67775398 -0.30836529
H  0.39764630 -0.14047464 -0.16722403
H  0.63284053 -0.98212497 0.09772581
12
MD Step 19.0 Units = [eV / Ang.]
C  -1.95005438 0.33267306 0.58013211
C  2.11271813 1.59389203 -0.67201259
C  0.30590779 -1.05320319 -0.01691759
C  0.37994090 3.16896693 -0.09709423
C  0.07450653 -3.09161660 0.79075023
C  0.33830215 2.01857725 -0.58298036
H  -0.44599469 -0.29224800 -0.21707268
H  -0.31597776 1.33066130 0.30191869
H  -1.32146296 0.00875712 0.24291430
H  -0.34871617 -2.81758830 -0.29932855
H  0.56015556 -0.28704964 -0.17696389
H  0.63336635 -0.91248872 0.10331921
12
MD Step 19.5 Units = [eV / Ang.]
C  -2.36097872 0.00965055 0.64478495
C  2.58119408 1.41853299 -0.67949107
C  0.18174786 -1.20974023 0.00542412
C  0.51885620 3.36372091 -0.08611262
C  -0.36147664 -3.09552448 0.76166386
C  0.39979438 2.11211343 -0.58531119
H  -0.23588834 -0.01668604 -0.26708310
H  -0.43122705 1.48296036 0.30670920
H  -1.24032508 0.02519909 0.22052013
H  -0.28651073 -2.82098535 -0.28213485
H  0.69062104 -0.40442746 -0.18393420
H  0.58066440 -0.83124351 0.10354089
12
MD Step 20.0 Units = [eV / Ang.]
C  -2.70393287 -0.27803486 0.70637470
C  2.92500590 1.30614437 -0.66869382
C  -0.03504971 -1.30718350 0.03288803
C  0.62246592 3.40845963 -0.08559633
C  -0.73800954 -3.09037609 0.73155415
C  0.50310808 2.14349290 -0.58348773
H  -0.04778543 0.23499151 -0.30212269
H  -0.48943728 1.54042013 0.31336534
H  -1.07132597 0.03488929 0.19253605
H  -0.20259549 -2.71277337 -0.26351807
H  0.78005680 -0.48428557 -0.19263562
H  0.48576635 -0.75838001 0.09556804
12
MD Step 20.5 Units = [eV / Ang.]
C  -2.94886477 -0.50591708 0.76203065
C  3.10980586 1.24042916 -0.64270014
C  -0.33522435 -1.31832807 0.06696557
C  0.67659553 3.29233108 -0.09802052
C  -1.02225477 -3.06958129 0.69948286
C  0.63288290 2.09035917 -0.57739295
H  0.11089384 0.44547889 -0.33144077
H  -0.49993725 1.52276683 0.32057711
H  -0.83125033 0.04005646 0.15965000
H  -0.08994871 -2.51826954 -0.24399032
H  0.83726581 -0.52722625 -0.20020745
H  0.35966121 -0.69269600 0.08530683
12
MD Step 21.0 Units = [eV / Ang.]
C  -3.10650886 -0.68646999 0.80696910
C  3.20915947 1.21773902 -0.59288692
C  -0.75594383 -1.31870970 0.09961057
C  0.68563787 3.01708551 -0.11872544
C  -1.30172008 -3.04517987 0.62521401
C  0.80535034 2.01897082 -0.54264342
H  0.28459217 0.61783572 -0.40898392
H  -0.48204360 1.40299203 0.26722522
H  -0.48966037 0.05565655 0.10856845
H  0.11770965 -2.15845241 -0.18827763
H  0.87942600 -0.52873709 -0.17338484
H  0.18301805 -0.53908002 0.09931869
12
MD Step 21.5 Units = [eV / Ang.]
C  -3.16469687 -0.80942026 0.83506015
C  3.23240698 1.27504748 -0.52610209
C  -1.26428309 -1.33367071 0.12085862
C  0.64153789 2.56021321 -0.14516850
C  -1.56963274 -3.03278660 0.53525719
C  1.01268152 1.96132393 -0.48782518
H  0.41374983 0.72566656 -0.47156894
H  -0.40761855 1.18706026 0.21215631
H  -0.08560784 0.06655033 0.05761084
H  0.37201863 -1.62643824 -0.12049019
H  0.87326146 -0.48492979 -0.14559550
H  -0.00716303 -0.38655108 0.10806606
12
MD Step 22.0 Units = [eV / Ang.]
C  -3.13544152 -0.88040176 0.84256564
C  3.21236614 1.44708955 -0.45702878
C  -1.81695129 -1.40239005 0.13772854
C  0.54472874 1.91429249 -0.17775853
C  -1.84958726 -3.06601746 0.44401368
C  1.22208583 1.95393815 -0.42166456
H  0.49445367 0.76724396 -0.50936760
H  -0.28029477 0.88589111 0.15746522
H  0.34060502 0.07263709 0.01186482
H  0.68003209 -0.91746453 -0.04847372
H  0.82274753 -0.39967825 -0.11857752
H  -0.18622639 -0.24025153 0.10860983
12
MD Step 22.5 Units = [eV / Ang.]
C  -3.01904125 -0.89655513 0.82848445
C  3.13761214 1.74010626 -0.39674245
C  -2.34463169 -1.51405193 0.15811590
C  0.38977332 1.07798828 -0.21702358
C  -2.12067822 -3.15504377 0.36487386
C  1.38677191 1.98569208 -0.35685398
H  0.52637308 0.74440408 -0.51620389
H  -0.10606750 0.51357814 0.10638944
H  0.73851390 0.07405981 -0.02556361
H  1.04236139 -0.04317549 0.01851365
H  0.73297485 -0.27814379 -0.09276338
H  -0.32971010 -0.10248145 0.10043244
12
MD Step 23.0 Units = [eV / Ang.]
C  -2.80574754 -0.85059330 0.79366378
C  2.97768001 2.11531990 -0.34622771
C  -2.77824054 -1.62916808 0.18079014
C  0.17537288 0.08673298 -0.25983292
C  -2.34226958 -3.27348189 0.29724831
C  1.47139736 2.01620298 -0.29757679
H  0.51377438 0.65802809 -0.49729404
H  0.10461226 0.08361074 0.05732648
H  1.05863910 0.07294548 -0.05363777
H  1.44609770 0.95734587 0.07738568
H  0.60846348 -0.12524705 -0.06485825
H  -0.42116501 0.03676347 0.08798050
12
MD Step 23.5 Units = [eV / Ang.]
C  -2.48142126 -0.73177254 0.74071894
C  2.69667821 2.49974340 -0.30229013
C  -3.05470629 -1.69179844 0.19652754
C  -0.08042765 -0.95507613 -0.29988902
C  -2.45830181 -3.36971239 0.23932757
C  1.45676319 1.98830256 -0.24395838
H  0.45631598 0.51371342 -0.45887505
H  0.33299331 -0.36121832 0.02291553
H  1.24878868 0.07025539 -0.06780123
H  1.84184994 1.95181493 0.12080186
H  0.46153743 0.04522818 -0.03995956
H  -0.44691686 0.16741760 0.07325718
12
MD Step 24.0 Units = [eV / Ang.]
C  -2.04987679 -0.54009649 0.67132119
C  2.30916927 2.82173964 -0.26332169
C  -3.13821936 -1.68505245 0.19747863
C  -0.31280046 -1.86406663 -0.32787163
C  -2.45747080 -3.40498066 0.18712128
C  1.34212092 1.87888436 -0.19261800
H  0.35906761 0.31824725 -0.40870128
H  0.55288814 -0.77505078 0.00693536
H  1.28149547 0.06776673 -0.06639189
H  2.15490767 2.76135140 0.14465289
H  0.30525331 0.21866100 -0.02000852
H  -0.40706463 0.29184530 0.05853643
12
MD Step 24.5 Units = [eV / Ang.]
C  -1.53550801 -0.28947321 0.58538204
C  1.88176410 3.02654509 -0.22941165
C  -3.02610305 -1.63517096 0.18293042
C  -0.41818527 -2.42913175 -0.33583633
C  -2.38093880 -3.36493887 0.13487595
C  1.13936802 1.70586710 -0.13925208
H  0.23004209 0.07220357 -0.34998883
H  0.73311659 -1.12257991 -0.00404701
H  1.15526198 0.06712065 -0.05305059
H  2.28997749 3.21344526 0.15142741
H  0.14339789 0.38432611 0.00116154
H  -0.31286447 0.43262368 0.04640527
12
MD Step 25.0 Units = [eV / Ang.]
C  -0.97101603 -0.00378691 0.48282765
C  1.49392184 3.06843309 -0.19918966
C  -2.74280327 -1.57799634 0.15857558
C  -0.30400160 -2.50916328 -0.32198630
C  -2.28792439 -3.24276194 0.07514806
C  0.86536811 1.50070978 -0.07952801
H  0.07766688 -0.22831313 -0.28003865
H  0.83568686 -1.37274696 -0.03738672
H  0.88021493 0.06870476 -0.03591325
H  2.14509675 3.19021786 0.15051407
H  -0.03049597 0.53129816 0.03647943
H  -0.17939260 0.62194796 0.04004907
12
MD Step 25.5 Units = [eV / Ang.]
C  -0.39040878 0.30964984 0.38121026
C  1.14706305 2.91962532 -0.17113558
C  -2.32539154 -1.46574239 0.11802448
C  0.01938315 -2.12402673 -0.29497481
C  -2.13031553 -3.03324016 0.04309298
C  0.55602405 1.23966724 -0.03223699
H  -0.08580440 -0.48146617 -0.21616046
H  0.85645530 -1.37240795 0.01104741
H  0.53340446 0.06364929 0.00303967
H  1.81414201 2.64497924 0.11165404
H  -0.11491321 0.59680405 0.02119895
H  -0.01950051 0.70323564 0.02129288
12
MD Step 26.0 Units = [eV / Ang.]
C  0.19004309 0.61026615 0.27425388
C  0.87131794 2.54689043 -0.13541910
C  -1.82339898 -1.32289644 0.07853824
C  0.50651050 -1.42701100 -0.26142242
C  -1.96860965 -2.70167496 0.00121518
C  0.21136864 0.93566056 0.02110004
H  -0.23958098 -0.74541242 -0.15281744
H  0.77308280 -1.24419258 0.01795655
H  0.13114556 0.05856397 0.03252325
H  1.25917739 1.81806795 0.08536693
H  -0.19676914 0.61631625 0.02566891
H  0.13902365 0.83908745 0.01013945
12
MD Step 26.5 Units = [eV / Ang.]
C  0.72510194 0.86354649 0.17383084
C  0.67582977 2.00064061 -0.08918832
C  -1.29059375 -1.15443588 0.04130033
C  1.06019901 -0.61595423 -0.22814261
C  -1.80956387 -2.26969724 -0.03845330
C  -0.13699008 0.61123510 0.07284119
H  -0.36381694 -0.95744122 -0.09948494
H  0.60799775 -0.97049217 0.01845047
H  -0.26601736 0.04941881 0.05802694
H  0.62350573 0.88711553 0.06316016
H  -0.23941778 0.56755840 0.02650778
H  0.28123783 0.96553854 -0.00111900
12
MD Step 27.0 Units = [eV / Ang.]
C  1.18384121 1.03550689 0.08710542
C  0.54321213 1.33513111 -0.02984847
C  -0.76813978 -0.96087823 0.00929390
C  1.58794053 0.14550592 -0.19843078
C  -1.65370279 -1.74869123 -0.07659102
C  -0.47111643 0.27690015 0.12176420
H  -0.43910644 -1.08710043 -0.06240063
H  0.39145220 -0.60132787 0.01087701
H  -0.61961652 0.03584280 0.07755389
H  0.00791398 0.01968262 0.04714708
H  -0.24504931 0.45462583 0.02482194
H  0.39362521 1.07686106 -0.01288622
12
MD Step 27.5 Units = [eV / Ang.]
C  1.54499754 1.09326511 0.01416368
C  0.45967614 0.60039385 0.04290819
C  -0.28178255 -0.75676395 -0.01127979
C  2.03872059 0.77210065 -0.17156075
C  -1.51591385 -1.14592575 -0.12802221
C  -0.78338342 -0.05002317 0.17433662
H  -0.44586553 -1.12286395 -0.03376692
H  0.12250569 -0.19453775 -0.04722513
H  -0.92966244 0.01879217 0.08095607
H  -0.61495936 -0.74200517 0.04769554
H  -0.25113678 0.28656974 0.04669324
H  0.46254237 1.20012782 -0.01895955
12
MD Step 28.0 Units = [eV / Ang.]
C  1.78296871 1.03013924 -0.03704435
C  0.41378851 -0.11795207 0.12293973
C  0.13740129 -0.55097875 -0.02360893
C  2.38389077 1.22740366 -0.14844832
C  -1.38951346 -0.51348945 -0.17908928
C  -1.04947583 -0.34783497 0.22269013
H  -0.38218655 -1.03601128 -0.02451992
H  -0.13449564 0.20528061 -0.10782818
H  -1.14616161 -0.00220393 0.07916577
H  -1.11310198 -1.31170301 0.05001181
H  -0.23376382 0.08088437 0.06661840
H  0.48270539 1.28532451 -0.02713099
12
MD Step 28.5 Units = [eV / Ang.]
C  1.90684109 0.84993748 -0.07471949
C  0.38146593 -0.80779508 0.20738859
C  0.48627019 -0.34232167 -0.02265744
C  2.62064268 1.51918583 -0.12737493
C  -1.27081292 0.15306952 -0.24729411
C  -1.27270397 -0.62041136 0.27607433
H  -0.24034285 -0.83182651 -0.01703708
H  -0.40289202 0.55816354 -0.22205234
H  -1.27555540 -0.02519795 0.05881473
H  -1.58651760 -1.74230286 0.06643112
H  -0.23919066 -0.14849442 0.11676280
H  0.43719367 1.34888186 -0.02806688
12
MD Step 29.0 Units = [eV / Ang.]
C  1.91989700 0.59436600 -0.09387443
C  0.35275147 -1.40267491 0.28722510
C  0.74264493 -0.12860929 -0.01681014
C  2.75046639 1.65623800 -0.11049945
C  -1.13986578 0.78957582 -0.30706426
C  -1.43234318 -0.86019612 0.32195570
H  -0.06111885 -0.54609400 -0.02655550
H  -0.59407837 0.82652761 -0.30550553
H  -1.28095857 -0.04936454 0.04167511
H  -1.86694135 -1.96011535 0.07542625
H  -0.22782516 -0.36200451 0.15150153
H  0.34424810 1.35208829 -0.03477624
12
MD Step 29.5 Units = [eV / Ang.]
C  1.83270047 0.32503229 -0.08569495
C  0.34242555 -1.82025137 0.35365512
C  0.88026114 0.07833645 -0.01928337
C  2.80147374 1.65866170 -0.10187254
C  -0.99329929 1.30134222 -0.31809571
C  -1.50611196 -1.04881296 0.34135188
H  0.07170861 -0.30149724 -0.08209841
H  -0.60770978 1.01750576 -0.23710772
H  -1.21271940 -0.07602861 0.06872349
H  -1.80203911 -1.97258317 0.04756832
H  -0.14496787 -0.51871421 0.10223918
H  0.27405986 1.34587443 -0.07189609
12
MD Step 30.0 Units = [eV / Ang.]
C  1.73347188 0.03881044 -0.09542778
C  0.22294261 -2.28229409 0.41940870
C  0.97687685 0.36856092 -0.00730923
C  2.72389700 1.54004538 -0.08933430
C  -0.75504300 1.90375862 -0.37028373
C  -1.56790399 -1.30689022 0.38150205
H  0.26234291 0.01146266 -0.09974548
H  -0.69121066 1.11692398 -0.29799794
H  -1.04466688 -0.09855548 0.04889850
H  -1.89096475 -1.94897385 0.05562000
H  -0.15947497 -0.66176861 0.13295732
H  0.10496099 1.30426349 -0.08163358
12
MD Step 30.5 Units = [eV / Ang.]
C  1.63092523 -0.21517635 -0.11012280
C  0.00961623 -2.69942040 0.47688036
C  1.00795681 0.72197243 0.00337633
C  2.52431457 1.30398758 -0.07575716
C  -0.42089936 2.49306239 -0.41481526
C  -1.59604522 -1.60298607 0.41660879
H  0.43374722 0.30092954 -0.11559650
H  -0.71955064 1.12483310 -0.34033453