12
MD Step 0 Units = [Angstroms]
C  -0.70054404 -1.23858291 0.01852420
C  0.67100696 -1.18603091 -0.04771580
C  1.37236796 -0.01023591 0.03677620
C  0.72265496 1.20777809 -0.00369680
C  -0.66979104 1.21138109 -0.01811780
C  -1.38713804 0.00504309 0.02709820
H  -1.34019104 -2.12282491 -0.15946180
H  1.34606396 -2.07687691 -0.19423780
H  2.47351696 -0.05502091 0.07092220
H  1.17789696 2.27472709 0.01815620
H  -1.28948104 2.12615409 -0.08326380
H  -2.46976804 -0.01928291 0.19454720
12
MD Step 1 Units = [Angstroms]
C  -0.70178110 -1.23843701 0.02002967
C  0.67411840 -1.18977007 -0.04642385
C  1.37178296 -0.00890977 0.03617934
C  0.72250591 1.21033519 -0.00220436
C  -0.66877451 1.21249833 -0.02053880
C  -1.38885873 0.00608672 0.02555159
H  -1.35114592 -2.12475659 -0.15982097
H  1.34882598 -2.07402909 -0.19868848
H  2.46407955 -0.04735010 0.05930091
H  1.18387693 2.24970556 0.02339560
H  -1.28949119 2.12987397 -0.06894009
H  -2.46330545 -0.03577267 0.19468742
12
MD Step 2 Units = [Angstroms]
C  -0.70332573 -1.23853276 0.02135435
C  0.67755550 -1.19419192 -0.04515195
C  1.37178912 -0.00749200 0.03557524
C  0.72225239 1.21369335 -0.00067006
C  -0.66810610 1.21388983 -0.02302281
C  -1.39082116 0.00707176 0.02414978
H  -1.35960340 -2.12581574 -0.15944198
H  1.34864063 -2.07007594 -0.20258044
H  2.45391918 -0.03954459 0.04770044
H  1.18980720 2.22041972 0.02852534
H  -1.28749571 2.13264446 -0.05445270
H  -2.45661147 -0.05135410 0.19446191
12
MD Step 3 Units = [Angstroms]
C  -0.70515470 -1.23888407 0.02249184
C  0.68126130 -1.19922071 -0.04389456
C  1.37229301 -0.00599462 0.03495716
C  0.72186298 1.21768055 0.00090203
C  -0.66780832 1.21555630 -0.02555360
C  -1.39294720 0.00798135 0.02288140
H  -1.36533213 -2.12576631 -0.15826942
H  1.34580848 -2.06545842 -0.20594633
H  2.44392943 -0.03169542 0.03615178
H  1.19619289 2.18857737 0.03358080
H  -1.28353659 2.13446563 -0.03988976
H  -2.45034861 -0.06579034 0.19395121
12
MD Step 4 Units = [Angstroms]
C  -0.70723117 -1.23948958 0.02343870
C  0.68516516 -1.20475933 -0.04264297
C  1.37318691 -0.00443101 0.03431916
C  0.72128823 1.22207731 0.00250570
C  -0.66789138 1.21748865 -0.02811370
C  -1.39515737 0.00880057 0.02173407
H  -1.36823957 -2.12452696 -0.15627765
H  1.34078656 -2.06079014 -0.20885819
H  2.43507970 -0.02388488 0.02467288
H  1.20377597 2.15635750 0.03862011
H  -1.27776024 2.13545513 -0.02534261
H  -2.44518096 -0.07887618 0.19323789
12
MD Step 5 Units = [Angstroms]
C  -0.70950625 -1.24033280 0.02419467
C  0.68918458 -1.21069259 -0.04138545
C  1.37435872 -0.00281647 0.03365647
C  0.72046146 1.22662821 0.00413218
C  -0.66835320 1.21966921 -0.03068493
C  -1.39737709 0.00951568 0.02069524
H  -1.36837263 -2.12217024 -0.15347075
H  1.33417099 -2.05683469 -0.21142828
H  2.42831553 -0.01618144 0.01326729
H  1.21352016 2.12629306 0.04372740
H  -1.27041110 2.13584136 -0.01089940
H  -2.44170534 -0.09043737 0.19239631
12
MD Step 6 Units = [Angstroms]
C  -0.71192071 -1.24138269 0.02476270
C  0.69322861 -1.21689293 -0.04010779
C  1.37570433 -0.00116865 0.03296545
C  0.71930795 1.23106910 0.00577039
C  -0.66918035 1.22207350 -0.03324905
C  -1.39954329 0.01011315 0.01975332
H  -1.36591491 -2.11891925 -0.14988242
H  1.32666063 -2.05446004 -0.21380411
H  2.42443847 -0.00863742 0.00192793
H  1.22649765 2.10097484 0.04900739
H  -1.26182015 2.13594925 0.00335978
H  -2.44038228 -0.10032506 0.19148199
12
MD Step 7 Units = [Angstroms]
C  -0.71440673 -1.24259448 0.02514895
C  0.69720323 -1.22322874 -0.03879454
C  1.37713986 0.00049245 0.03224327
C  0.71776525 1.23516983 0.00740841
C  -0.67034977 1.22467230 -0.03578836
C  -1.40161002 0.01057870 0.01889845
H  -1.36118073 -2.11514052 -0.14557432
H  1.31899518 -2.05456041 -0.21615574
H  2.42398437 -0.00128877 -0.00935624
H  1.24364525 2.08256892 0.05456618
H  -1.25238607 2.13617768 0.01736879
H  -2.44147769 -0.10841023 0.19052280
12
MD Step 8 Units = [Angstroms]
C  -0.71688996 -1.24391111 0.02536257
C  0.70101873 -1.22957520 -0.03743091
C  1.37861141 0.00214519 0.03148718
C  0.71581097 1.23878002 0.00903612
C  -0.67183143 1.22743418 -0.03828628
C  -1.40355205 0.01089659 0.01812303
H  -1.35460214 -2.11132960 -0.14063281
H  1.31186843 -2.05794533 -0.21865347
H  2.42713170 0.00584178 -0.02059025
H  1.26543333 2.07229403 0.06047902
H  -1.24254870 2.13696656 0.03107939
H  -2.44502870 -0.11457892 0.18951379
12
MD Step 9 Units = [Angstroms]
C  -0.71929195 -1.24526591 0.02541527
C  0.70459793 -1.23582671 -0.03600516
C  1.38009961 0.00376766 0.03069376
C  0.71348532 1.24185602 0.01064792
C  -0.67359139 1.23032855 -0.04072765
C  -1.40536575 0.01104950 0.01742185
H  -1.34670563 -2.10808410 -0.13516280
H  1.30582964 -2.06520949 -0.22143816
H  2.43366789 0.01273847 -0.03176214
H  1.29159506 2.07011883 0.06675753
H  -1.23275614 2.13875338 0.04446138
H  -2.45084153 -0.11873017 0.18841744
12
MD Step 10 Units = [Angstroms]
C  -0.72153364 -1.24658677 0.02532047
C  0.70788353 -1.24190788 -0.03451110
C  1.38161774 0.00533951 0.02985832
C  0.71089421 1.24445337 0.01224388
C  -0.67559491 1.23332914 -0.04309882
C  -1.40706701 0.01101913 0.01679166
H  -1.33807437 -2.10605868 -0.12927776
H  1.30119664 -2.07661338 -0.22459071
H  2.44302471 0.01938652 -0.04283633
H  1.32108336 2.07485830 0.07333683
H  -1.22342732 2.14192241 0.05750033
H  -2.45852128 -0.12077906 0.18716921
12
MD Step 11 Units = [Angstroms]
C  -0.72353961 -1.24780210 0.02509212
C  0.71084209 -1.24778019 -0.03294986
C  1.38320465 0.00684389 0.02897475
C  0.70819036 1.24669048 0.01382875
C  -0.67780878 1.23641757 -0.04538719
C  -1.40868691 0.01078719 0.01623059
H  -1.32929689 -2.10589992 -0.12308726
H  1.29801084 -2.09201132 -0.22810992
H  2.45437006 0.02576603 -0.05375069
H  1.35228216 2.08460595 0.08008798
H  -1.21491771 2.14675261 0.07018883
H  -2.46752488 -0.12066237 0.18568723
12
MD Step 12 Units = [Angstroms]
C  -0.72524340 -1.24884819 0.02474337
C  0.71346325 -1.25344211 -0.03133029
C  1.38491466 0.00826883 0.02803578
C  0.70554323 1.24870508 0.01540955
C  -0.68020274 1.23958636 -0.04758057
C  -1.41026612 0.01033680 0.01573741
H  -1.32090464 -2.10816322 -0.11668205
H  1.29604837 -2.11085363 -0.23190710
H  2.46672833 0.03184937 -0.06442045
H  1.38334850 2.09724689 0.08684793
H  -1.20749165 2.15337343 0.08251640
H  -2.47722556 -0.11834716 0.18388331
12
MD Step 13 Units = [Angstroms]
C  -0.72659267 -1.24967695 0.02428531
C  0.71575470 -1.25892263 -0.02966781
C  1.38680710 0.00960804 0.02703360
C  0.70311214 1.25062171 0.01699312
C  -0.68274981 1.24284070 -0.04966640
C  -1.41184908 0.00965369 0.01531077
H  -1.31330861 -2.11322367 -0.11012041
H  1.29488308 -2.13226353 -0.23581916
H  2.47910011 0.03760147 -0.07474628
H  1.41251791 2.11083824 0.09345005
H  -1.20130701 2.16173835 0.09445970
H  -2.48697708 -0.11383914 0.18167313
12
MD Step 14 Units = [Angstroms]
C  -0.72755330 -1.25026238 0.02372613
C  0.71773479 -1.26427071 -0.02798224
C  1.38893752 0.01086112 0.02596063
C  0.70102974 1.25253572 0.01858445
C  -0.68542548 1.24619821 -0.05163113
C  -1.41347883 0.00872713 0.01494857
H  -1.30675003 -2.12120100 -0.10341946
H  1.29397789 -2.15516216 -0.23963472
H  2.49056008 0.04298204 -0.08462359
H  1.43828870 2.12379641 0.09974397
H  -1.19641527 2.17162281 0.10597504
H  -2.49616966 -0.10718902 0.17898460
12
MD Step 15 Units = [Angstroms]
C  -0.72811113 -1.25060386 0.02307105
C  0.71942513 -1.26954383 -0.02629525
C  1.39135129 0.01203326 0.02481028
C  0.69939574 1.25450993 0.02018604
C  -0.68820603 1.24968674 -0.05346000
C  -1.41519278 0.00755044 0.01464759
H  -1.30127933 -2.13191964 -0.09655521
H  1.29277590 -2.17840354 -0.24312475
H  2.50032526 0.04794863 -0.09395164
H  1.45948895 2.13493607 0.10560465
H  -1.19277585 2.18264730 0.11699547
H  -2.50427345 -0.09849606 0.17576357
12
MD Step 16 Units = [Angstroms]
C  -0.72827092 -1.25072530 0.02232291
C  0.72084483 -1.27479812 -0.02462817
C  1.39407936 0.01313462 0.02357758
C  0.69827705 1.25657780 0.02179781
C  -0.69106646 1.25334055 -0.05513713
C  -1.41701951 0.00612116 0.01440318
H  -1.29676861 -2.14491779 -0.08947106
H  1.29077186 -2.20089150 -0.24606966
H  2.50779735 0.05246018 -0.10264146
H  1.47527297 2.14343426 0.11093316
H  -1.19027988 2.19432090 0.12743359
H  -2.51087031 -0.08790804 0.17197731
12
MD Step 17 Units = [Angstroms]
C  -0.72805286 -1.25067030 0.02148334
C  0.72200712 -1.28008109 -0.02300035
C  1.39713567 0.01417945 0.02225962
C  0.69771080 1.25874849 0.02341748
C  -0.69397856 1.25719545 -0.05664605
C  -1.41897652 0.00444104 0.01420912
H  -1.29295364 -2.15950414 -0.08209157
H  1.28755726 -2.22166405 -0.24827884
H  2.51258527 0.05648062 -0.11062195
H  1.48508840 2.14877329 0.11565461
H  -1.18877803 2.20609620 0.13718951
H  -2.51567529 -0.07561818 0.16761501
12
MD Step 18 Units = [Angstroms]
C  -0.72748772 -1.25049479 0.02055408
C  0.72291806 -1.28542716 -0.02142833
C  1.40051591 0.01518493 0.02085585
C  0.69770807 1.26101151 0.02504084
C  -0.69690934 1.26128393 -0.05797030
C  -1.42106862 0.00251609 0.01405768
H  -1.28949368 -2.17484102 -0.07434122
H  1.28284228 -2.23993588 -0.24960106
H  2.51451237 0.05998003 -0.11784216
H  1.48863531 2.15068731 0.11971378
H  -1.18810804 2.21742072 0.14615718
H  -2.51854699 -0.06186306 0.16268890
12
MD Step 19 Units = [Angstroms]
C  -0.72661210 -1.25025903 0.01953813
C  0.72357640 -1.29085532 -0.01992547
C  1.40419678 0.01616991 0.01936828
C  0.69825646 1.26333979 0.02666201
C  -0.69982039 1.26563092 -0.05909424
C  -1.42328725 0.00035639 0.01393969
H  -1.28602917 -2.19004225 -0.06615702
H  1.27646177 -2.25512801 -0.24993028
H  2.51362225 0.06293820 -0.12427722
H  1.48584771 2.14913406 0.12307529
H  -1.18811579 2.22778773 0.15423686
H  -2.51949496 -0.04691379 0.15723252
12
MD Step 20 Units = [Angstroms]
C  -0.72546425 -1.25002066 0.01844036
C  0.72397442 -1.29636783 -0.01850165
C  1.40813588 0.01715373 0.01780161
C  0.69932140 1.26569106 0.02827355
C  -0.70266795 1.27025040 -0.06000384
C  -1.42561049 -0.00202415 0.01384460
H  -1.28222960 -2.20426092 -0.05749664
H  1.26837261 -2.26687967 -0.24920687
H  2.51017795 0.06534712 -0.12993205
H  1.47688687 2.14428605 0.12572514
H  -1.18867123 2.23677549 0.16134487
H  -2.51867828 -0.03106540 0.15129782
12
MD Step 21 Units = [Angstroms]
C  -0.72408133 -1.24982958 0.01726794
C  0.72409878 -1.30194929 -0.01716339
C  1.41227206 0.01815475 0.01616331
C  0.70084619 1.26800713 0.02986634
C  -0.70540351 1.27514287 -0.06068719
C  -1.42800354 -0.00460787 0.01376076
H  -1.27782836 -2.21674888 -0.04834578
H  1.25865015 -2.27504501 -0.24741678
H  2.50465524 0.06721073 -0.13484148
H  1.46215147 2.13654329 0.12767292
H  -1.18967890 2.24406891 0.16741714
H  -2.51639565 -0.01463225 0.14495426
12
MD Step 22 Units = [Angstroms]
C  -0.72249762 -1.24972466 0.01603018
C  0.72393147 -1.30756617 -0.01591372
C  1.41652699 0.01918929 0.01446345
C  0.70275064 1.27021178 0.03142929
C  -0.70797495 1.28029411 -0.06113504
C  -1.43042050 -0.00737369 0.01367573
H  -1.27264001 -2.22690524 -0.03871509
H  1.24748115 -2.27970048 -0.24459097
H  2.49772750 0.06854662 -0.13907334
H  1.44230332 2.12656588 0.12895918
H  -1.19108283 2.24947926 0.17241704
H  -2.51306642 0.00206838 0.13828283
12
MD Step 23 Units = [Angstroms]
C  -0.72074353 -1.24973215 0.01473824
C  0.72345038 -1.31316635 -0.01475219
C  1.42080808 0.02027099 0.01271447
C  0.70492913 1.27220730 0.03294893
C  -0.71032785 1.28567457 -0.06134108
C  -1.43280698 -0.01029761 0.01357660
H  -1.26656825 -2.23429908 -0.02863794
H  1.23515930 -2.28114378 -0.24080416
H  2.49023386 0.06938480 -0.14272598
H  1.41829830 2.11531838 0.12966239
H  -1.19286844 2.25294932 0.17633713
H  -2.50919923 0.01872552 0.13137126
12
MD Step 24 Units = [Angstroms]
C  -0.71884538 -1.24986506 0.01340480
C  0.72262989 -1.31867892 -0.01367479
C  1.42501346 0.02141034 0.01093066
C  0.70724968 1.27387141 0.03440896
C  -0.71240708 1.29123946 -0.06130209
C  -1.43510405 -0.01335304 0.01345053
H  -1.25960832 -2.23867782 -0.01816826
H  1.22208198 -2.27989100 -0.23617448
H  2.48312567 0.06976470 -0.14592148
H  1.39141073 2.10411160 0.12990518
H  -1.19506131 2.25455080 0.17919888
H  -2.50534963 0.03503959 0.12430952
12
MD Step 25 Units = [Angstroms]
C  -0.71682530 -1.25012310 0.01204359
C  0.72144149 -1.32401514 -0.01267403
C  1.42903956 0.02261487 0.00912715
C  0.70955672 1.27505752 0.03579015
C  -0.71415854 1.29692976 -0.06101803
C  -1.43725310 -0.01651130 0.01328531
H  -1.25184468 -2.23997165 -0.00737497
H  1.20874101 -2.27666798 -0.23086071
H  2.47738315 0.06973113 -0.14879502
H  1.36321161 2.09460257 0.12985579
H  -1.19772340 2.25447762 0.18105252
H  -2.50206613 0.05072895 0.11718338
12
MD Step 26 Units = [Angstroms]
C  -0.71470144 -1.25049299 0.01066895
C  0.71985534 -1.32907095 -0.01173943
C  1.43279092 0.02388943 0.00731871
C  0.71168121 1.27560326 0.03707130
C  -0.71553128 1.30267367 -0.06049200
C  -1.43920130 -0.01974185 0.01306973
H  -1.24344842 -2.23829266 0.00366197
H  1.19570665 -2.27238303 -0.22505617
H  2.47390608 0.06932899 -0.15147835
H  1.33546332 2.08869878 0.12971720
H  -1.20094664 2.25303149 0.18197428
H  -2.49983124 0.06552981 0.11006941
12
MD Step 27 Units = [Angstroms]
C  -0.71248819 -1.25094895 0.00929536
C  0.71784302 -1.33373221 -0.01085846
C  1.43619110 0.02523647 0.00551814
C  0.71346081 1.27535191 0.03823171
C  -0.71647979 1.30838903 -0.05973000
C  -1.44090671 -0.02301233 0.01279397
H  -1.23467229 -2.23393202 0.01485785
H  1.18359492 -2.26806921 -0.21897501
H  2.47338953 0.06859784 -0.15408070
H  1.30989264 2.08830816 0.12969778
H  -1.20484323 2.25060034 0.18206227
H  -2.49900421 0.07919566 0.10303043
12
MD Step 28 Units = [Angstroms]
C  -0.71019677 -1.25145351 0.00793688
C  0.71538203 -1.33788324 -0.01001832
C  1.43919235 0.02665589 0.00373480
C  0.71476764 1.27418697 0.03925513
C  -0.71696662 1.31398653 -0.05874045
C  -1.44234226 -0.02628846 0.01244969
H  -1.22584398 -2.22735171 0.02612892
H  1.17301755 -2.26478714 -0.21283045
H  2.47621219 0.06756799 -0.15667071
H  1.28787294 2.09493311 0.12996403
H  -1.20953188 2.24762743 0.18142960
H  -2.49977709 0.09149324 0.09611376
12
MD Step 29 Units = [Angstroms]
C  -0.70783621 -1.25195913 0.00660678
C  0.71246167 -1.34141851 -0.00920826
C  1.44178162 0.02814458 0.00197376
C  0.71553393 1.27207042 0.04013396
C  -0.71696475 1.31937391 -0.05753362
C  -1.44349777 -0.02953383 0.01202998
H  -1.21735522 -2.21916721 0.03739749
H  1.16451551 -2.26349055 -0.20680623
H  2.48236677 0.06625986 -0.15926409
H  1.27012769 2.10921938 0.13059033
H  -1.21511956 2.24457193 0.18019541
H  -2.50215294 0.10219820 0.08935224
12
MD Step 30 Units = [Angstroms]
C  -0.70541479 -1.25241092 0.00531694
C  0.70908956 -1.34425576 -0.00842215
C  1.44398090 0.02969553 0.00023557
C  0.71576231 1.26906584 0.04087151
C  -0.71645978 1.32446084 -0.05612067
C  -1.44437953 -0.03271013 0.01152903
H  -1.20964029 -2.21011335 0.04860016
H  1.15848254 -2.26487343 -0.20102468
H  2.49145632 0.06468642 -0.16182330
H  1.25660506 2.13067940 0.13153212
H  -1.22168081 2.24186156 0.17847390
H  -2.50595039 0.11109777 0.08276554
12
MD Step 31 Units = [Angstroms]
C  -0.70294236 -1.25275115 0.00407735
C  0.70529701 -1.34634736 -0.00766057
C  1.44584171 0.03129668 -0.00148308
C  0.71551450 1.26533206 0.04148094
C  -0.71545142 1.32916395 -0.05451234
C  -1.44500769 -0.03577762 0.01094177
H  -1.20314308 -2.20098652 0.05969583
H  1.15510063 -2.26924091 -0.19552134
H  2.50276191 0.06285754 -0.16426782
H  1.24660498 2.15776696 0.13263983
H  -1.22923743 2.23984353 0.17636231
H  -2.51083507 0.11799788 0.07636156
12
MD Step 32 Units = [Angstroms]
C  -0.70043363 -1.25292521 0.00289599
C  0.70114142 -1.34768574 -0.00693151
C  1.44743531 0.03293018 -0.00318805
C  0.71488565 1.26109087 0.04198152
C  -0.71395456 1.33341107 -0.05271796
C  -1.44541232 -0.03869569 0.01026347
H  -1.19827933 -2.19256952 0.07066563
H  1.15431290 -2.27644979 -0.19023889
H  2.51535678 0.06078484 -0.16649121
H  1.23908376 2.18826012 0.13370469
H  -1.23773979 2.23874377 0.17393102
H  -2.51636935 0.12272768 0.07014098
12
MD Step 33 Units = [Angstroms]
C  -0.69791192 -1.25288829 0.00177949
C  0.69670542 -1.34830094 -0.00624908
C  1.44884151 0.03457245 -0.00488602
C  0.71397821 1.25658633 0.04239411
C  -0.71199990 1.33714418 -0.05074495
C  -1.44562879 -0.04142319 0.00948960
H  -1.19539633 -2.18554947 0.08150179
H  1.15584042 -2.28593560 -0.18504385
H  2.52822657 0.05848656 -0.16837878
H  1.23296567 2.21972546 0.13450985
H  -1.24705058 2.23864300 0.17121863
H  -2.52206556 0.12514210 0.06410459
12
MD Step 34 Units = [Angstroms]
C  -0.69541240 -1.25261244 0.00073393
C  0.69209206 -1.34825213 -0.00563118
C  1.45013873 0.03619486 -0.00658312
C  0.71288502 1.25205137 0.04273780
C  -0.70963328 1.34032053 -0.04859866
C  -1.44569330 -0.04391977 0.00861554
H  -1.19472495 -2.18042822 0.09220180
H  1.15923136 -2.29681876 -0.17975326
H  2.54038558 0.05598884 -0.16982503
H  1.22733675 2.24990372 0.13486744
H  -1.25694366 2.23947086 0.16823133
H  -2.52743935 0.12513276 0.05825332
12
MD Step 35 Units = [Angstroms]
C  -0.69298472 -1.25209147 -0.00023397
C  0.68741926 -1.34761464 -0.00509634
C  1.45139592 0.03776427 -0.00828380
C  0.71168284 1.24768967 0.04302832
C  -0.70691534 1.34291130 -0.04628304
C  -1.44563881 -0.04614568 0.00763677
H  -1.19634587 -2.17746067 0.10274695
H  1.16392976 -2.30804317 -0.17417268
H  2.55095176 0.05332738 -0.17074381
H  1.22152673 2.27689131 0.13463525
H  -1.26710585 2.24102180 0.16494956
H  -2.53204998 0.12263367 0.05259419
12
MD Step 36 Units = [Angstroms]
C  -0.69069331 -1.25134325 -0.00111585
C  0.68281264 -1.34646804 -0.00466119
C  1.45266727 0.03924396 -0.00999035
C  0.71043251 1.24366845 0.04327761
C  -0.70391952 1.34489894 -0.04380140
C  -1.44549199 -0.04806313 0.00654892
H  -1.20016746 -2.17661942 0.11309569
H  1.16934593 -2.31852430 -0.16812385
H  2.55921109 0.05054512 -0.17107600
H  1.21510424 2.29922041 0.13371969
H  -1.27716005 2.24298718 0.16133656
H  -2.53553721 0.11763103 0.04713701
12
MD Step 37 Units = [Angstroms]
C  -0.68861560 -1.25040778 -0.00190116
C  0.67839916 -1.34488664 -0.00433866
C  1.45398867 0.04059482 -0.01170271
C  0.70918223 1.24011908 0.04349423
C  -0.70072964 1.34627359 -0.04115739
C  -1.44527112 -0.04963692 0.00534808
H  -1.20593111 -2.17761103 0.12317307
H  1.17491399 -2.32726372 -0.16146751
H  2.56465040 0.04769052 -0.17079205
H  1.20784244 2.31583607 0.13207133
H  -1.28669070 2.24499814 0.15735021
H  -2.53764559 0.11016938 0.04189506
12
MD Step 38 Units = [Angstroms]
C  -0.68683758 -1.24934188 -0.00257713
C  0.67430125 -1.34293366 -0.00413699
C  1.45537585 0.04177704 -0.01341856
C  0.70797103 1.23713990 0.04368382
C  -0.69743657 1.34702958 -0.03835597
C  -1.44498472 -0.05083582 0.00403113
H  -1.21323973 -2.17993241 0.13287097
H  1.18013464 -2.33343055 -0.15411423
H  2.56698031 0.04481486 -0.16989239
H  1.19967757 2.32605753 0.12967861
H  -1.29527728 2.24667184 0.15295334
H  -2.53824220 0.10035547 0.03688345
12
MD Step 39 Units = [Angstroms]
C  -0.68544737 -1.24821142 -0.00312967
C  0.67063057 -1.34065891 -0.00405976
C  1.45682357 0.04275258 -0.01513380
C  0.70683133 1.23479874 0.04384964
C  -0.69413344 1.34716317 -0.03540370
C  -1.44463103 -0.05163444 0.00259602
H  -1.22160821 -2.18295522 0.14206147
H  1.18460718 -2.33641469 -0.14602249
H  2.56615189 0.04196727 -0.16840604
H  1.19067110 2.32955048 0.12656109
H  -1.30253337 2.24765639 0.14811954
H  -2.53732638 0.08835325 0.03211444
12
MD Step 40 Units = [Angstroms]
C  -0.68452761 -1.24708235 -0.00354539
C  0.66748085 -1.33809853 -0.00410757
C  1.45830650 0.04348922 -0.01684360
C  0.70579037 1.23313372 0.04399335
C  -0.69090830 1.34667242 -0.03230744
C  -1.44419811 -0.05201530 0.00104181
H  -1.23053460 -2.18602209 0.15062588
H  1.18805619 -2.33585309 -0.13717919
H  2.56235864 0.03918632 -0.16638582
H  1.18097082 2.32630595 0.12275878
H  -1.30814804 2.24767007 0.14283041
H  -2.53502446 0.07435540 0.02758775
12
MD Step 41 Units = [Angstroms]
C  -0.68414785 -1.24601192 -0.00381378
C  0.66492021 -1.33527571 -0.00428077
C  1.45978146 0.04396613 -0.01854350
C  0.70487019 1.23215308 0.04411581
C  -0.68783535 1.34555888 -0.02907180
C  -1.44366505 -0.05197106 -0.00063119
H  -1.23957086 -2.18853090 0.15847765
H  1.19034086 -2.33160928 -0.12757235
H  2.55600464 0.03649318 -0.16390007
H  1.17077948 2.31658125 0.11831810
H  -1.31190541 2.24652276 0.13706793
H  -2.53156283 0.05853791 0.02328494
12
MD Step 42 Units = [Angstroms]
C  -0.68435833 -1.24504355 -0.00392754
C  0.66298441 -1.33220353 -0.00457990
C  1.46118918 0.04417995 -0.02022899
C  0.70408458 1.23183341 0.04421682
C  -0.68496858 1.34382911 -0.02569891
C  -1.44300501 -0.05150889 -0.00242094
H  -1.24834027 -2.18997596 0.16554055
H  1.19143304 -2.32372575 -0.11719424
H  2.54766434 0.03389775 -0.16103101
H  1.16037105 2.30084004 0.11329090
H  -1.31366411 2.24411466 0.13082187
H  -2.52724180 0.04106293 0.01918402
12
MD Step 43 Units = [Angstroms]
C  -0.68519189 -1.24421494 -0.00387738
C  0.66169214 -1.32888839 -0.00499476
C  1.46244439 0.04412855 -0.02189300
C  0.70343476 1.23211766 0.04429308
C  -0.68236458 1.34148652 -0.02220272
C  -1.44218432 -0.05064441 -0.00431988
H  -1.25642922 -2.18994679 0.17162933
H  1.19137396 -2.31249063 -0.10617242
H  2.53815311 0.03143503 -0.15790024
H  1.15024147 2.27994014 0.10781143
H  -1.31332369 2.24044079 0.12415750
H  -2.52248435 0.02229650 0.01531917
12
MD Step 44 Units = [Angstroms]
C  -0.68665951 -1.24355294 -0.00365475
C  0.66104884 -1.32531963 -0.00550712
C  1.46344460 0.04380884 -0.02352927
C  0.70291005 1.23291353 0.04433702
C  -0.68007894 1.33853138 -0.01860559
C  -1.44116190 -0.04939213 -0.00631837
H  -1.26352766 -2.18818796 0.17659930
H  1.19034336 -2.29842052 -0.09463025
H  2.52843613 0.02913163 -0.15462615
H  1.14099551 2.25515281 0.10203707
H  -1.31090181 2.23560336 0.11713362
H  -2.51774553 0.00259915 0.01170841
12
MD Step 45 Units = [Angstroms]
C  -0.68875485 -1.24307307 -0.00325644
C  0.66105098 -1.32146352 -0.00610005
C  1.46407891 0.04320658 -0.02513306
C  0.70249045 1.23409084 0.04434060
C  -0.67816840 1.33495572 -0.01492874
C  -1.43989578 -0.04775514 -0.00840431
H  -1.26944206 -2.18460132 0.18036300
H  1.18864641 -2.28223576 -0.08269313
H  2.51953196 0.02700185 -0.15131570
H  1.13336821 2.22817187 0.09613706
H  -1.30652024 2.22980474 0.10980967
H  -2.51345325 -0.01768153 0.00835091
12
MD Step 46 Units = [Angstroms]
C  -0.69145419 -1.24277893 -0.00268463
C  0.66168396 -1.31726167 -0.00676000
C  1.46424197 0.04229894 -0.02669954
C  0.70214532 1.23548156 0.04429517
C  -0.67668683 1.33074135 -0.01118967
C  -1.43835248 -0.04572741 -0.01056554
H  -1.27409588 -2.17924161 0.18290520
H  1.18669983 -2.26482642 -0.07048059
H  2.51239200 0.02504854 -0.14805699
H  1.12822592 2.20108621 0.09027021
H  -1.30039305 2.22333508 0.10224456
H  -2.50994992 -0.03821664 0.00522575
12
MD Step 47 Units = [Angstroms]
C  -0.69471424 -1.24266119 -0.00194621
C  0.66291619 -1.31263907 -0.00747618
C  1.46384763 0.04106240 -0.02822369
C  0.70183273 1.23688667 0.04419182
C  -0.67567757 1.32586465 -0.00740281
C  -1.43651425 -0.04330255 -0.01279086
H  -1.27751906 -2.17231489 0.18427128
H  1.18500725 -2.24722030 -0.05810873
H  2.50778208 0.02326830 -0.14491623
H  1.12653479 2.17628637 0.08457686
H  -1.29281643 2.21656001 0.09450356
H  -2.50745325 -0.05867287 0.00230228
12
MD Step 48 Units = [Angstroms]
C  -0.69846934 -1.24269510 -0.00105220
C  0.66469190 -1.30751821 -0.00823995
C  1.46284159 0.03948452 -0.02970224
C  0.70150293 1.23809764 0.04402254
C  -0.67516229 1.32030727 -0.00357995
C  -1.43438294 -0.04048498 -0.01506996
H  -1.27984868 -2.16416491 0.18455243
H  1.18411462 -2.23048004 -0.04566001
H  2.50615771 0.02165447 -0.14192698
H  1.12924248 2.15614899 0.07916111
H  -1.28413956 2.20988799 0.08664595
H  -2.50602365 -0.07873645 -0.00045521
12
MD Step 49 Units = [Angstroms]
C  -0.70263251 -1.24284072 -0.00001754
C  0.66693382 -1.30183366 -0.00904486
C  1.46120815 0.03756712 -0.03113547
C  0.70111096 1.23893298 0.04378233
C  -0.67513919 1.31406365 0.00026944
C  -1.43198052 -0.03729479 -0.01739252
H  -1.28131708 -2.15525714 0.18386686
H  1.18454731 -2.21559385 -0.03317491
H  2.50759806 0.02020120 -0.13908654
H  1.13709922 2.14260912 0.07408136
H  -1.27473375 2.20373514 0.07872127
H  -2.50556485 -0.09810770 -0.00308148
12
MD Step 50 Units = [Angstroms]
C  -0.70709985 -1.24304664 0.00113968
C  0.66955691 -1.29554375 -0.00988526
C  1.45897105 0.03532050 -0.03252661
C  0.70063741 1.23927994 0.04347020
C  -0.67559114 1.30714300 0.00413584
C  -1.42934642 -0.03376524 -0.01974771
H  -1.28223221 -2.14617827 0.18235347
H  1.18673627 -2.20339169 -0.02068161
H  2.51180268 0.01890693 -0.13636356
H  1.15042994 2.13674742 0.06935507
H  -1.26498360 2.19849863 0.07078181
H  -2.50585053 -0.11644832 -0.00560511
12
MD Step 51 Units = [Angstroms]
C  -0.71175496 -1.24325490 0.00239974
C  0.67248664 -1.28863986 -0.01075274
C  1.45619077 0.03275606 -0.03387904
C  0.70010915 1.23912273 0.04308812
C  -0.67649550 1.29957049 0.00800497
C  -1.42653196 -0.02993661 -0.02212499
H  -1.28295543 -2.13764537 0.18018074
H  1.19092952 -2.19447126 -0.00825577
H  2.51811807 0.01777494 -0.13371442
H  1.16889262 2.13850856 0.06497870
H  -1.25530041 2.19453054 0.06290796
H  -2.50655813 -0.13330471 -0.00804364
12
MD Step 52 Units = [Angstroms]
C  -0.71648412 -1.24340103 0.00374129
C  0.67565068 -1.28115059 -0.01164320
C  1.45294860 0.02989736 -0.03520157
C  0.69958897 1.23853978 0.04264205
C  -0.67782272 1.29138976 0.01187157
C  -1.42360160 -0.02585946 -0.02451461
H  -1.28388028 -2.13026179 0.17749980
H  1.19717362 -2.18883055 0.00421589
H  2.52571300 0.01679403 -0.13104709
H  1.19169464 2.14659061 0.06086054
H  -1.24588766 2.19198907 0.05506530
H  -2.50730798 -0.14848054 -0.01044118
12
MD Step 53 Units = [Angstroms]
C  -0.72117101 -1.24342405 0.00514082
C  0.67899365 -1.27315030 -0.01255379
C  1.44934540 0.02677332 -0.03650431
C  0.69917513 1.23767113 0.04214075
C  -0.67953987 1.28266797 0.01573151
C  -1.42062426 -0.02159387 -0.02690380
H  -1.28537422 -2.12465793 0.17445855
H  1.20526901 -2.18616285 0.01674253
H  2.53362622 0.01595234 -0.12829493
H  1.21751061 2.15901762 0.05694137
H  -1.23694013 2.19092145 0.04727195
H  -2.50772111 -0.16165007 -0.01282085
12
MD Step 54 Units = [Angstroms]
C  -0.72570894 -1.24327287 0.00657759
C  0.68247574 -1.26474841 -0.01347636
C  1.44548758 0.02341775 -0.03779523
C  0.69897839 1.23667952 0.04159141
C  -0.68161534 1.27349206 0.01957794
C  -1.41767024 -0.01720449 -0.02928172
H  -1.28773479 -2.12134021 0.17118345
H  1.21482045 -2.18581403 0.02932345
H  2.54090816 0.01522798 -0.12539789
H  1.24482139 2.17356492 0.05316911
H  -1.22855985 2.19121147 0.03953181
H  -2.50745813 -0.17251059 -0.01520873
12
MD Step 55 Units = [Angstroms]
C  -0.73000725 -1.24291315 0.00803348
C  0.68606900 -1.25607854 -0.01440063
C  1.44147852 0.01986934 -0.03908164
C  0.69910329 1.23571744 0.04100069
C  -0.68401920 1.26396635 0.02340480
C  -1.41480793 -0.01275849 -0.03163774
H  -1.29114314 -2.12061878 0.16776193
H  1.22530908 -2.18690207 0.04193779
H  2.54671240 0.01458844 -0.12231084
H  1.27215464 2.18815941 0.04950671
H  -1.22076155 2.19258907 0.03184360
H  -2.50625183 -0.18079620 -0.01763156
12
MD Step 56 Units = [Angstroms]
C  -0.73399066 -1.24233238 0.00949417
C  0.68975955 -1.24728754 -0.01531098
C  1.43741905 0.01616927 -0.04036686
C  0.69964382 1.23491107 0.04037381
C  -0.68672021 1.25421266 0.02720091
C  -1.41209666 -0.00832033 -0.03396195
H  -1.29561290 -2.12257794 0.16426287
H  1.23609476 -2.18845449 0.05444853
H  2.55030136 0.01399289 -0.11902428
H  1.29802581 2.20098124 0.04595515
H  -1.21355588 2.19465370 0.02425798
H  -2.50393431 -0.18621090 -0.02010492
12
MD Step 57 Units = [Angstroms]
C  -0.73761058 -1.24154241 0.01095040
C  0.69353910 -1.23851963 -0.01618824
C  1.43339496 0.01235816 -0.04165121
C  0.70067157 1.23435165 0.03971447
C  -0.68969065 1.24435862 0.03095302
C  -1.40958809 -0.00394859 -0.03624667
H  -1.30099180 -2.12700874 0.16071000
H  1.24656353 -2.18951621 0.06671634
H  2.55115951 0.01338966 -0.11553866
H  1.32124749 2.21066858 0.04251836
H  -1.20689831 2.19691494 0.01681724
H  -2.50045582 -0.18854924 -0.02265166
12
MD Step 58 Units = [Angstroms]
C  -0.74083748 -1.24057717 0.01239646
C  0.69740596 -1.22991295 -0.01700952
C  1.42948274 0.00847696 -0.04293016
C  0.70224200 1.23409805 0.03902543
C  -0.69289872 1.23454012 0.03464199
C  -1.40732046 0.00030502 -0.03848502
H  -1.30693781 -2.13341984 0.15712410
H  1.25607720 -2.18924424 0.07847877
H  2.54898438 0.01272120 -0.11189507
H  1.34069769 2.21619192 0.03923298
H  -1.20079245 2.19882746 0.00963134
H  -2.49591889 -0.18765489 -0.02528040
12
MD Step 59 Units = [Angstroms]
C  -0.74366981 -1.23948651 0.01383026
C  0.70135346 -1.22158809 -0.01775215
C  1.42573514 0.00456591 -0.04419752
C  0.70438432 1.23417667 0.03830841
C  -0.69631503 1.22488621 0.03824940
C  -1.40532449 0.00439475 -0.04067256
H  -1.31302578 -2.14112559 0.15348532
H  1.26417589 -2.18699910 0.08954835
H  2.54376460 0.01192498 -0.10812562
H  1.35571122 2.21702849 0.03611779
H  -1.19520610 2.19988317 0.00277180
H  -2.49054471 -0.18351588 -0.02801499
12
MD Step 60 Units = [Angstroms]
C  -0.74613646 -1.23832799 0.01525058
C  0.70536804 -1.21363015 -0.01841081
C  1.42216634 0.00066631 -0.04545937
C  0.70709390 1.23458640 0.03756719
C  -0.69992512 1.21549599 0.04178013
C  -1.40362829 0.00827847 -0.04280081
H  -1.31894788 -2.14954646 0.14965650
H  1.27081715 -2.18232534 0.10007467
H  2.53564956 0.01093900 -0.10417528
H  1.36642695 2.21314778 0.03311002
H  -1.18995758 2.19970329 -0.00386626
H  -2.48451401 -0.17615303 -0.03093637
12
MD Step 61 Units = [Angstroms]
C  -0.74825443 -1.23716027 0.01665292
C  0.70942850 -1.20613037 -0.01898072
C  1.41879618 -0.00316078 -0.04671911
C  0.71035378 1.23530464 0.03680702
C  -0.70368261 1.20648896 0.04523218
C  -1.40224379 0.01190217 -0.04485589
H  -1.32424346 -2.15793752 0.14559121
H  1.27580634 -2.17498340 0.10989715
H  2.52504101 0.00971460 -0.10010184
H  1.37262917 2.20460853 0.03023345
H  -1.18508481 2.19794392 -0.01019450
H  -2.47823001 -0.16567000 -0.03405837
12
MD Step 62 Units = [Angstroms]