12
MD Step 0 Units = [Angstroms / fs]
C  -0.00054198 0.00138099 0.00365502
C  0.00747102 -0.00586699 0.00307902
C  -0.00021700 0.00342602 -0.00072100
C  0.00140598 0.00506601 0.00341298
C  0.00396298 0.00284799 -0.00429202
C  -0.00151200 0.00300298 -0.00277500
H  -0.02242597 -0.00347202 -0.00089997
H  0.01022603 0.00520702 -0.00898396
H  -0.01578800 0.01598904 -0.02275000
H  0.01392597 -0.04366498 0.01107996
H  -0.00034603 0.00914698 0.02887696
H  0.01370800 -0.03274603 0.00118900
12
MD Step 1 Units = [Angstroms / fs]
C  -0.00116561 0.00092655 0.00330271
C  0.00816462 -0.00728461 0.00303638
C  0.00103724 0.00362030 -0.00072842
C  0.00121352 0.00679166 0.00349931
C  0.00330104 0.00338514 -0.00443242
C  -0.00206704 0.00290508 -0.00247584
H  -0.01779628 -0.00211443 0.00049238
H  0.00419275 0.00767736 -0.00787013
H  -0.01798169 0.01635270 -0.02274925
H  0.01352635 -0.05343098 0.01084171
H  0.00360143 0.00736678 0.02928371
H  0.01477266 -0.03119478 0.00038732
12
MD Step 2 Units = [Angstroms / fs]
C  -0.00175754 0.00042938 0.00293470
C  0.00875897 -0.00857420 0.00300176
C  0.00212613 0.00379158 -0.00074969
C  0.00097315 0.00822179 0.00357896
C  0.00258226 0.00393442 -0.00454218
C  -0.00247240 0.00277108 -0.00219758
H  -0.01257017 -0.00013326 0.00202406
H  -0.00140145 0.00944710 -0.00678544
H  -0.01853405 0.01653110 -0.02267669
H  0.01393205 -0.06025176 0.01065778
H  0.00757069 0.00546811 0.02952302
H  0.01457292 -0.02914122 -0.00026356
12
MD Step 3 Units = [Angstroms / fs]
C  -0.00228940 -0.00008031 0.00255684
C  0.00922570 -0.00969091 0.00298140
C  0.00301385 0.00393747 -0.00078364
C  0.00065191 0.00926045 0.00364832
C  0.00183079 0.00447534 -0.00461826
C  -0.00272015 0.00260533 -0.00194310
H  -0.00702015 0.00216531 0.00363681
H  -0.00623806 0.01016230 -0.00580542
H  -0.01722342 0.01653618 -0.02255517
H  0.01558485 -0.06318573 0.01056736
H  0.01135155 0.00368719 0.02958282
H  0.01304658 -0.02664556 -0.00075136
12
MD Step 4 Units = [Angstroms / fs]
C  -0.00273555 -0.00057214 0.00217530
C  0.00953928 -0.01059530 0.00298150
C  0.00368174 0.00405470 -0.00082827
C  0.00021454 0.00982423 0.00370269
C  0.00107118 0.00498950 -0.00465870
C  -0.00281386 0.00241093 -0.00171357
H  -0.00142452 0.00447268 0.00527113
H  -0.01002152 0.00950030 -0.00500967
H  -0.01399786 0.01639051 -0.02241214
H  0.01894334 -0.06140775 0.01061917
H  0.01474156 0.00225234 0.02946308
H  0.01025931 -0.02377041 -0.00108225
12
MD Step 5 Units = [Angstroms / fs]
C  -0.00307359 -0.00101643 0.00179644
C  0.00967939 -0.01125696 0.00300752
C  0.00413341 0.00413898 -0.00088133
C  -0.00036425 0.00986843 0.00373719
C  0.00032705 0.00546153 -0.00466274
C  -0.00276993 0.00218928 -0.00150818
H  0.00394057 0.00648443 0.00686765
H  -0.01251002 0.00720674 -0.00447369
H  -0.00902524 0.01612405 -0.02227265
H  0.02433773 -0.05450604 0.01085982
H  0.01755613 0.00137081 0.02917511
H  0.00641467 -0.02057216 -0.00128325
12
MD Step 6 Units = [Angstroms / fs]
C  -0.00328464 -0.00138488 0.00142664
C  0.00963448 -0.01165942 0.00306313
C  0.00439703 0.00418561 -0.00094092
C  -0.00108026 0.00941834 0.00374870
C  -0.00038062 0.00587989 -0.00463082
C  -0.00261703 0.00193985 -0.00132423
H  0.00880768 0.00790657 0.00836878
H  -0.01356004 0.00315099 -0.00425538
H  -0.00271527 0.01576931 -0.02215136
H  0.03174110 -0.04284745 0.01131129
H  0.01964103 0.00121314 0.02874096
H  0.00184356 -0.01709600 -0.00140085
12
MD Step 7 Units = [Angstroms / fs]
C  -0.00335360 -0.00165150 0.00107215
C  0.00940576 -0.01180546 0.00314897
C  0.00452282 0.00419060 -0.00100611
C  -0.00188116 0.00858772 0.00373814
C  -0.00103527 0.00623759 -0.00456464
C  -0.00239303 0.00166040 -0.00115775
H  0.01292833 0.00846663 0.00972187
H  -0.01317664 -0.00260850 -0.00437746
H  0.00430895 0.01535588 -0.02204616
H  0.04055158 -0.02780406 0.01194407
H  0.02088735 0.00189427 0.02819239
H  -0.00303067 -0.01337685 -0.00149554
12
MD Step 8 Units = [Angstroms / fs]
C  -0.00326986 -0.00179444 0.00073852
C  0.00901005 -0.01172111 0.00326135
C  0.00457524 0.00415199 -0.00107748
C  -0.00266433 0.00756305 0.00371182
C  -0.00162603 0.00653325 -0.00446676
C  -0.00214025 0.00134787 -0.00100412
H  0.01609034 0.00793350 0.01088369
H  -0.01155030 -0.00977225 -0.00481067
H  0.01129899 0.01490394 -0.02193404
H  0.04956549 -0.01157330 0.01266368
H  0.02124562 0.00345274 0.02756534
H  -0.00774834 -0.00944280 -0.00163273
12
MD Step 9 Units = [Angstroms / fs]
C  -0.00302864 -0.00179864 0.00043001
C  0.00847984 -0.01145579 0.00339169
C  0.00462150 0.00407112 -0.00115693
C  -0.00330145 0.00655022 0.00367996
C  -0.00214819 0.00677199 -0.00434012
C  -0.00189978 0.00099964 -0.00085899
H  0.01814269 0.00614803 0.01182714
H  -0.00905688 -0.01779121 -0.00546556
H  0.01750818 0.01442144 -0.02177432
H  0.05726542 0.00344108 0.01333002
H  0.02073678 0.00583292 0.02689357
H  -0.01187739 -0.00532295 -0.00187205
12
MD Step 10 Units = [Angstroms / fs]
C  -0.00263291 -0.00165920 0.00014889
C  0.00785890 -0.01107661 0.00352715
C  0.00471990 0.00395303 -0.00124713
C  -0.00367998 0.00571132 0.00365293
C  -0.00260242 0.00696602 -0.00418725
C  -0.00170630 0.00061475 -0.00071900
H  0.01902339 0.00306125 0.01254758
H  -0.00620417 -0.02592500 -0.00620007
H  0.02231702 0.01390426 -0.02151681
H  0.06230217 0.01536393 0.01380255
H  0.01945351 0.00887628 0.02619989
H  -0.01506848 -0.00105505 -0.00225782
12
MD Step 11 Units = [Angstroms / fs]
C  -0.00209530 -0.00138447 -0.00010511
C  0.00719417 -0.01065741 0.00365263
C  0.00491149 0.00380608 -0.00135070
C  -0.00373631 0.00512854 0.00363769
C  -0.00299316 0.00713416 -0.00400959
C  -0.00158455 0.00019467 -0.00058209
H  0.01878410 -0.00122753 0.01306770
H  -0.00353392 -0.03336346 -0.00684470
H  0.02531818 0.01333953 -0.02111240
H  0.06387989 0.02326535 0.01398312
H  0.01755042 0.01232801 0.02548837
H  -0.01708971 0.00330897 -0.00281364
12
MD Step 12 Units = [Angstroms / fs]
C  -0.00143888 -0.00099796 -0.00033489
C  0.00652678 -0.01026567 0.00375383
C  0.00521673 0.00364086 -0.00146935
C  -0.00346384 0.00480800 0.00363632
C  -0.00332666 0.00730002 -0.00380713
C  -0.00154789 -0.00025656 -0.00044775
H  0.01760238 -0.00644681 0.01343877
H  -0.00151367 -0.03937547 -0.00723757
H  0.02634433 0.01271207 -0.02052389
H  0.06185021 0.02710900 0.01383400
H  0.01522515 0.01586266 0.02474307
H  -0.01783791 0.00770024 -0.00354193
12
MD Step 13 Units = [Angstroms / fs]
C  -0.00069602 -0.00053736 -0.00054538
C  0.00588542 -0.00995188 0.00381978
C  0.00563685 0.00346895 -0.00160341
C  -0.00289940 0.00470734 0.00364678
C  -0.00360866 0.00748868 -0.00357855
C  -0.00159873 -0.00073279 -0.00031683
H  0.01576841 -0.01216089 0.01373446
H  -0.00045669 -0.04343185 -0.00725600
H  0.02544573 0.01200924 -0.01973149
H  0.05655437 0.02742617 0.01336790
H  0.01269055 0.01912624 0.02393076
H  -0.01733012 0.01203510 -0.00442661
12
MD Step 14 Units = [Angstroms / fs]
C  0.00009506 -0.00005014 -0.00074247
C  0.00528394 -0.00974457 0.00384418
C  0.00615783 0.00330178 -0.00175169
C  -0.00210264 0.00476485 0.00366472
C  -0.00384246 0.00772280 -0.00332164
C  -0.00173006 -0.00122641 -0.00019122
H  0.01364269 -0.01781913 0.01403700
H  -0.00049379 -0.04526342 -0.00683409
H  0.02283878 0.01122362 -0.01873385
H  0.04858490 0.02497438 0.01262638
H  0.01014503 0.02178577 0.02300785
H  -0.01568273 0.01622002 -0.00543748
12
MD Step 15 Units = [Angstroms / fs]
C  0.00089543 0.00041379 -0.00093152
C  0.00472308 -0.00965089 0.00382556
C  0.00675505 0.00314993 -0.00191155
C  -0.00113931 0.00491860 0.00368506
C  -0.00402760 0.00801905 -0.00303409
C  -0.00192746 -0.00172917 -0.00007349
H  0.01159434 -0.02284000 0.01442011
H  -0.00159314 -0.04485287 -0.00596361
H  0.01885048 0.01035443 -0.01754653
H  0.03859778 0.02051427 0.01166086
H  0.00774890 0.02357485 0.02193060
H  -0.01308742 0.02015792 -0.00653523
12
MD Step 16 Units = [Angstroms / fs]
C  0.00167084 0.00081020 -0.00111613
C  0.00419455 -0.00966084 0.00376626
C  0.00739715 0.00302250 -0.00207930
C  -0.00007197 0.00511498 0.00370302
C  -0.00415957 0.00838536 -0.00271425
C  -0.00217097 -0.00223265 0.00003333
H  0.00993811 -0.02670776 0.01493524
H  -0.00360625 -0.04238416 -0.00468291
H  0.01387277 0.00940814 -0.01619912
H  0.02721257 0.01471350 0.01052149
H  0.00561095 0.02432561 0.02066601
H  -0.00978905 0.02375479 -0.00767659
12
MD Step 17 Units = [Angstroms / fs]
C  0.00239524 0.00110710 -0.00129739
C  0.00368525 -0.00975275 0.00367099
C  0.00804885 0.00292647 -0.00225059
C  0.00104357 0.00531002 0.00371443
C  -0.00423035 0.00881998 -0.00236150
C  -0.00243681 -0.00272834 0.00012619
H  0.00888677 -0.02904651 0.01560131
H  -0.00631780 -0.03816817 -0.00306045
H  0.00832730 0.00839580 -0.01472976
H  0.01497510 0.00812918 0.00925195
H  0.00378461 0.02397650 0.01919545
H  -0.00606437 0.02692193 -0.00881651
12
MD Step 18 Units = [Angstroms / fs]
C  0.00305222 0.00128783 -0.00147397
C  0.00318073 -0.00989807 0.00354575
C  0.00867292 0.00286644 -0.00242051
C  0.00215781 0.00546747 0.00371566
C  -0.00422969 0.00931203 -0.00197671
C  -0.00269892 -0.00320790 0.00020211
H  0.00853566 -0.02966139 0.01640585
H  -0.00948436 -0.03258793 -0.00118081
H  0.00264877 0.00733327 -0.01318472
H  0.00237173 0.00123672 0.00789169
H  0.00227469 0.02256820 0.01751904
H  -0.00220785 0.02958142 -0.00991069
12
MD Step 19 Units = [Angstroms / fs]
C  0.00363455 0.00135063 -0.00164272
C  0.00266742 -0.01006460 0.00339729
C  0.00923143 0.00284466 -0.00258373
C  0.00322518 0.00555562 0.00370349
C  -0.00414678 0.00984297 -0.00156238
C  -0.00293042 -0.00366353 0.00025819
H  0.00887485 -0.02854323 0.01731567
H  -0.01285896 -0.02606788 0.00086459
H  -0.00272298 0.00624262 -0.01161968
H  -0.01013630 -0.00552543 0.00648199
H  0.00104898 0.02023140 0.01565905
H  0.00148019 0.03167469 -0.01091951
12
MD Step 20 Units = [Angstroms / fs]
C  0.00414175 0.00130588 -0.00179947
C  0.00213333 -0.01021798 0.00323242
C  0.00968665 0.00286060 -0.00273482
C  0.00420150 0.00554332 0.00367467
C  -0.00397138 0.01038838 -0.00112223
C  -0.00310493 -0.00408760 0.00029199
H  0.00981147 -0.02583003 0.01828211
H  -0.01620104 -0.01904118 0.00298369
H  -0.00735566 0.00514795 -0.01009440
H  -0.02208418 -0.01171502 0.00506777
H  0.00004899 0.01715776 0.01365113
H  0.00471070 0.03315854 -0.01180705
12
MD Step 21 Units = [Angstroms / fs]
C  0.00457785 0.00117234 -0.00193978
C  0.00156824 -0.01032244 0.00305798
C  0.01000271 0.00291125 -0.00286840
C  0.00504122 0.00539663 0.00362556
C  -0.00369504 0.01092004 -0.00066103
C  -0.00319841 -0.00447299 0.00030160
H  0.01120050 -0.02176782 0.01925218
H  -0.01928062 -0.01194510 0.00508590
H  -0.01083887 0.00407484 -0.00867180
H  -0.03297128 -0.01684449 0.00370359
H  -0.00079929 0.01358027 0.01154237
H  0.00722349 0.03401067 -0.01254425
12
MD Step 22 Units = [Angstroms / fs]
C  0.00494964 0.00097359 -0.00205966
C  0.00096342 -0.01034125 0.00288097
C  0.01014816 0.00299189 -0.00297944
C  0.00569539 0.00507600 0.00355190
C  -0.00331191 0.01140785 -0.00018431
C  -0.00319130 -0.00481340 0.00028578
H  0.01287171 -0.01667390 0.02017816
H  -0.02187931 -0.00522313 0.00708247
H  -0.01280926 0.00304943 -0.00741532
H  -0.04224050 -0.02034925 0.00245847
H  -0.00157683 0.00975672 0.00938948
H  0.00880859 0.03423439 -0.01311284
12
MD Step 23 Units = [Angstroms / fs]
C  0.00526497 0.00073553 -0.00215570
C  0.00031113 -0.01023707 0.00270843
C  0.01009941 0.00309662 -0.00306375
C  0.00611220 0.00453533 0.00344847
C  -0.00281899 0.01182126 0.00030193
C  -0.00307061 -0.00510330 0.00024423
H  0.01464425 -0.01089657 0.02101685
H  -0.02378664 0.00068501 0.00888619
H  -0.01298891 0.00209343 -0.00637926
H  -0.04927928 -0.02157867 0.00141446
H  -0.00236514 0.00594759 0.00725062
H  0.00932975 0.03384747 -0.01350375
12
MD Step 24 Units = [Angstroms / fs]
C  0.00553205 0.00048466 -0.00222535
C  -0.00039509 -0.00997334 0.00254736
C  0.00984542 0.00321927 -0.00311866
C  0.00624165 0.00372569 0.00330948
C  -0.00221664 0.01213076 0.00079142
C  -0.00283218 -0.00533802 0.00017761
H  0.01633729 -0.00479693 0.02173267
H  -0.02480459 0.00535112 0.01041297
H  -0.01123677 0.00122156 -0.00560048
H  -0.05347253 -0.01984037 0.00066131
H  -0.00324079 0.00240401 0.00518344
H  0.00874705 0.03287924 -0.01371891
12
MD Step 25 Units = [Angstroms / fs]
C  0.00575901 0.00024719 -0.00226693
C  -0.00115948 -0.00951695 0.00240427
C  0.00939257 0.00335416 -0.00314368
C  0.00604666 0.00260695 0.00313004
C  -0.00150907 0.01230929 0.00127782
C  -0.00248215 -0.00551367 0.00008756
H  0.01777494 0.00126029 0.02229962
H  -0.02476030 0.00838294 0.01158765
H  -0.00760449 0.00043927 -0.00508866
H  -0.05433226 -0.01453770 0.00027932
H  -0.00427017 -0.00064409 0.00324270
H  0.00713349 0.03136544 -0.01377175
12
MD Step 26 Units = [Angstroms / fs]
C  0.00595360 0.00004855 -0.00227970
C  -0.00198198 -0.00884261 0.00228419
C  0.00876795 0.00349611 -0.00314120
C  0.00552044 0.00116887 0.00290860
C  -0.00070490 0.01233363 0.00175503
C  -0.00203719 -0.00562667 -0.00002356
H  0.01878892 0.00691399 0.02270195
H  -0.02352955 0.00947313 0.01235489
H  -0.00237721 -0.00025883 -0.00481787
H  -0.05170267 -0.00541983 0.00030854
H  -0.00550354 -0.00300281 0.00147617
H  0.00467833 0.02934108 -0.01368524
12
MD Step 27 Units = [Angstroms / fs]
C  0.00612270 -0.00008726 -0.00226395
C  -0.00285526 -0.00793884 0.00218942
C  0.00801927 0.00364004 -0.00311663
C  0.00470408 -0.00054279 0.00265006
C  0.00018232 0.01218607 0.00221764
C  -0.00152312 -0.00567346 -0.00015294
H  0.01922263 0.01181413 0.02293583
H  -0.02107089 0.00846925 0.01269482
H  0.00392396 -0.00088739 -0.00472503
H  -0.04597285 0.00710799 0.00071247
H  -0.00696775 -0.00453074 -0.00007938
H  0.00167198 0.02683649 -0.01348873
12
MD Step 28 Units = [Angstroms / fs]
C  0.00627166 -0.00013876 -0.00222090
C  -0.00376164 -0.00681449 0.00211819
C  0.00720984 0.00378015 -0.00307774
C  0.00369207 -0.00240961 0.00236744
C  0.00113399 0.01185623 0.00266129
C  -0.00097174 -0.00565028 -0.00029774
H  0.01893703 0.01563611 0.02300827
H  -0.01745941 0.00545039 0.01263783
H  0.01059656 -0.00146581 -0.00471664
H  -0.03814625 0.02178335 0.00135694
H  -0.00865769 -0.00515694 -0.00140302
H  -0.00152946 0.02387354 -0.01321225
12
MD Step 29 Units = [Angstroms / fs]
C  0.00640323 -0.00008879 -0.00215282
C  -0.00467118 -0.00550324 0.00206376
C  0.00640918 0.00390928 -0.00303339
C  0.00261470 -0.00425179 0.00208028
C  0.00212687 0.01134283 0.00308325
C  -0.00041660 -0.00555339 -0.00045546
H  0.01782538 0.01810678 0.02293959
H  -0.01291323 0.00078291 0.01227477
H  0.01686479 -0.00201167 -0.00468655
H  -0.02964826 0.03661603 0.00203094
H  -0.01052939 -0.00489724 -0.00249367
H  -0.00455272 0.02047242 -0.01288348
12
MD Step 30 Units = [Angstroms / fs]
C  0.00651623 0.00007287 -0.00206308
C  -0.00554222 -0.00406303 0.00201469
C  0.00568161 0.00401842 -0.00299192
C  0.00160126 -0.00587245 0.00180953
C  0.00313403 0.01065483 0.00348325
C  0.00011166 -0.00537937 -0.00062419
H  0.01583514 0.01904533 0.02276616
H  -0.00779176 -0.00488457 0.01175361
H  0.02201670 -0.00253558 -0.00453851
H  -0.02190262 0.04941399 0.00251079
H  -0.01249787 -0.00386355 -0.00337287
H  -0.00706068 0.01666352 -0.01252726
12
MD Step 31 Units = [Angstroms / fs]
C  0.00660402 0.00034639 -0.00195556
C  -0.00632520 -0.00256818 0.00195680
C  0.00507624 0.00409706 -0.00295968
C  0.00074415 -0.00711307 0.00157138
C  0.00412602 0.00981080 0.00386338
C  0.00058908 -0.00512546 -0.00080270
H  0.01298457 0.01840421 0.02253240
H  -0.00254588 -0.01071454 0.01125383
H  0.02552233 -0.00303862 -0.00420359
H  -0.01590125 0.05844322 0.00263254
H  -0.01443901 -0.00225722 -0.00408409
H  -0.00879723 0.01248926 -0.01216242
12
MD Step 32 Units = [Angstroms / fs]
C  0.00665322 0.00071914 -0.00183346
C  -0.00696871 -0.00109601 0.00187673
C  0.00462139 0.00413404 -0.00293998
C  0.00008412 -0.00788806 0.00137344
C  0.00507192 0.00883639 0.00422685
C  0.00100055 -0.00478998 -0.00099044
H  0.00937038 0.01629299 0.02227192
H  0.00236363 -0.01583704 0.01094473
H  0.02708629 -0.00351201 -0.00364755
H  -0.01201981 0.06281685 0.00232876
H  -0.01619370 -0.00034443 -0.00468620
H  -0.00960903 0.00799892 -0.01179605
12
MD Step 33 Units = [Angstroms / fs]
C  0.00664359 0.00116471 -0.00169864
C  -0.00742689 0.00028701 0.00176468
C  0.00432442 0.00411888 -0.00293309
C  -0.00038095 -0.00818598 0.00121543
C  0.00594092 0.00776128 0.00457753
C  0.00134009 -0.00437292 -0.00118734
H  0.00517768 0.01299287 0.02200119
H  0.00654202 -0.01951544 0.01095211
H  0.02664986 -0.00394098 -0.00287131
H  -0.01012840 0.06249785 0.00162024
H  -0.01758530 0.00157879 -0.00524355
H  -0.00944914 0.00325522 -0.01142797
12
MD Step 34 Units = [Angstroms / fs]
C  0.00654904 0.00164454 -0.00155094
C  -0.00766420 0.00153573 0.00161636
C  0.00417465 0.00404219 -0.00293677
C  -0.00067669 -0.00804710 0.00109203
C  0.00670318 0.00661469 0.00491863
C  0.00161030 -0.00387570 -0.00139348
H  0.00067340 0.00893609 0.02170943
H  0.00971260 -0.02125795 0.01133719
H  0.02434550 -0.00430781 -0.00190338
H  -0.00982156 0.05801626 0.00058132
H  -0.01843791 0.00322618 -0.00581471
H  -0.00836434 -0.00166288 -0.01105212
12
MD Step 35 Units = [Angstroms / fs]
C  0.00634053 0.00211274 -0.00138809
C  -0.00765783 0.00262978 0.00143307
C  0.00414798 0.00389597 -0.00294728
C  -0.00083500 -0.00753706 0.00099588
C  0.00733119 0.00542182 0.00525191
C  0.00182086 -0.00330097 -0.00160881
H  -0.00381971 0.00465184 0.02135768
H  0.01173781 -0.02085955 0.01209548
H  0.02044506 -0.00459557 -0.00079016
H  -0.01061669 0.05016359 -0.00069406
H  -0.01860053 0.00435942 -0.00644301
H  -0.00647861 -0.00666092 -0.01065984
12
MD Step 36 Units = [Angstroms / fs]
C  0.00599052 0.00252342 -0.00120636
C  -0.00739849 0.00357047 0.00122033
C  0.00421159 0.00367454 -0.00296018
C  -0.00088423 -0.00672789 0.00091970
C  0.00780198 0.00420187 0.00557754
C  0.00198669 -0.00265297 -0.00183283
H  -0.00796211 0.00068875 0.02088957
H  0.01260795 -0.01837767 0.01317171
H  0.01531764 -0.00479122 0.00041168
H  -0.01207011 0.03978877 -0.00211321
H  -0.01797058 0.00481548 -0.00715117
H  -0.00397698 -0.01162806 -0.01024503
12
MD Step 37 Units = [Angstroms / fs]
C  0.00547782 0.00283810 -0.00100141
C  -0.00688906 0.00437461 0.00098654
C  0.00432736 0.00337527 -0.00297093
C  -0.00084587 -0.00568803 0.00085698
C  0.00809842 0.00296715 0.00589361
C  0.00212626 -0.00193789 -0.00206445
H  -0.01144799 -0.00247704 0.02023853
H  0.01241380 -0.01406545 0.01447713
H  0.00938822 -0.00488593 0.00164253
H  -0.01381396 0.02767932 -0.00359439
H  -0.01650437 0.00452056 -0.00793997
H  -0.00108647 -0.01644339 -0.00980259
12
MD Step 38 Units = [Angstroms / fs]
C  0.00479191 0.00303165 -0.00076994
C  -0.00614463 0.00506730 0.00074073
C  0.00445452 0.00299974 -0.00297560
C  -0.00073516 -0.00448039 0.00080260
C  0.00821175 0.00172462 0.00619745
C  0.00225997 -0.00116459 -0.00230183
H  -0.01405076 -0.00450979 0.01935121
H  0.01132058 -0.00831066 0.01591348
H  0.00312142 -0.00487865 0.00284370
H  -0.01555921 0.01455640 -0.00506826
H  -0.01423035 0.00349249 -0.00879322
H  0.00193855 -0.02098646 -0.00933344
12
MD Step 39 Units = [Angstroms / fs]
C  0.00393566 0.00309572 -0.00051180
C  -0.00519440 0.00567581 0.00048957
C  0.00455210 0.00255540 -0.00297175
C  -0.00056330 -0.00316508 0.00075363
C  0.00814543 0.00047880 0.00648870
C  0.00240832 -0.00034576 -0.00254211
H  -0.01566641 -0.00525436 0.01821599
H  0.00955118 -0.00158105 0.01740261
H  -0.00299988 -0.00478260 0.00396241
H  -0.01709321 0.00109164 -0.00648148
H  -0.01125700 0.00183332 -0.00968979
H  0.00483893 -0.02516980 -0.00885188
12
MD Step 40 Units = [Angstroms / fs]
C  0.00292620 0.00303843 -0.00023097
C  -0.00408345 0.00622552 0.00023516
C  0.00458136 0.00205779 -0.00295893
C  -0.00034077 -0.00180300 0.00070955
C  0.00791831 -0.00076551 0.00677203
C  0.00258965 0.00050043 -0.00278150
H  -0.01633391 -0.00473734 0.01687297
H  0.00736335 0.00564837 0.01891231
H  -0.00852348 -0.00462784 0.00495887
H  -0.01827414 -0.01212499 -0.00780418
H  -0.00775440 -0.00029552 -0.01061717
H  0.00738685 -0.02898088 -0.00838651
12
MD Step 41 Units = [Angstroms / fs]
C  0.00179480 0.00287998 0.00006714
C  -0.00287084 0.00673738 -0.00002188
C  0.00450706 0.00153380 -0.00293692
C  -0.00008252 -0.00045780 0.00066917
C  0.00756296 -0.00200217 0.00705299
C  0.00281756 0.00134692 -0.00301623
H  -0.01617943 -0.00311287 0.01536531
H  0.00500342 0.01296997 0.02043764
H  -0.01306981 -0.00444480 0.00580409
H  -0.01897752 -0.02462285 -0.00902386
H  -0.00389376 -0.00271451 -0.01156622
H  0.00940699 -0.03245287 -0.00795822
12
MD Step 42 Units = [Angstroms / fs]
C  0.00058204 0.00263998 0.00038485
C  -0.00160192 0.00723118 -0.00026445
C  0.00428820 0.00100676 -0.00290163
C  0.00018903 0.00080854 0.00062271
C  0.00709522 -0.00322939 0.00731337
C  0.00310605 0.00216916 -0.00324268
H  -0.01523179 -0.00057298 0.01360127
H  0.00265995 0.01996266 0.02185143
H  -0.01622615 -0.00421335 0.00644846
H  -0.01891427 -0.03579675 -0.01006264
H  0.00020549 -0.00523915 -0.01246803
H  0.01070373 -0.03539956 -0.00752066
12
MD Step 43 Units = [Angstroms / fs]
C  -0.00067152 0.00233772 0.00072246
C  -0.00030577 0.00773320 -0.00047456
C  0.00388301 0.00047943 -0.00285212
C  0.00045100 0.00192970 0.00056165
C  0.00651511 -0.00445069 0.00753159
C  0.00347082 0.00296263 -0.00345450
H  -0.01355653 0.00263495 0.01151149
H  0.00054192 0.02615494 0.02302203
H  -0.01760033 -0.00391443 0.00685518
H  -0.01775184 -0.04483663 -0.01081613
H  0.00438602 -0.00766465 -0.01325517
H  0.01112383 -0.03761958 -0.00703510
12
MD Step 44 Units = [Angstroms / fs]
C  -0.00192986 0.00199599 0.00107043
C  0.00099211 0.00828173 -0.00065144
C  0.00326505 -0.00006359 -0.00279242
C  0.00068361 0.00283044 0.00048558
C  0.00582406 -0.00567676 0.00770743
C  0.00391922 0.00374185 -0.00364453
H  -0.01137832 0.00619953 0.00918738
H  -0.00109203 0.03111226 0.02394071
H  -0.01699021 -0.00357343 0.00703532
H  -0.01524759 -0.05090975 -0.01124142
H  0.00842910 -0.00978245 -0.01392177
H  0.01066162 -0.03912755 -0.00653178
12
MD Step 45 Units = [Angstroms / fs]
C  -0.00315905 0.00163682 0.00141849
C  0.00227091 0.00892347 -0.00079931
C  0.00243048 -0.00064291 -0.00272364
C  0.00086574 0.00343398 0.00039368
C  0.00502258 -0.00692729 0.00784599
C  0.00444266 0.00452598 -0.00380988
H  -0.00893133 0.00980930 0.00675897
H  -0.00200554 0.03446012 0.02461188
H  -0.01441055 -0.00321487 0.00701953
H  -0.01114131 -0.05319941 -0.01133692
H  0.01213700 -0.01140592 -0.01446752
H  0.00942872 -0.03995658 -0.00604928
12
MD Step 46 Units = [Angstroms / fs]
C  -0.00432274 0.00128395 0.00175716
C  0.00350200 0.00969888 -0.00092345
C  0.00140319 -0.00126847 -0.00264508
C  0.00097435 0.00367071 0.00028489
C  0.00412295 -0.00821904 0.00795360
C  0.00501608 0.00532327 -0.00395147
H  -0.00643942 0.01315886 0.00436000
H  -0.00200045 0.03589034 0.02504621
H  -0.01011493 -0.00285690 0.00684917
H  -0.00520324 -0.05100951 -0.01113215
H  0.01533391 -0.01237295 -0.01488754
H  0.00763448 -0.04012243 -0.00561771
12
MD Step 47 Units = [Angstroms / fs]
C  -0.00537954 0.00096465 0.00207777
C  0.00464368 0.01062614 -0.00102862
C  0.00023355 -0.00193078 -0.00255823
C  0.00098957 0.00349919 0.00015988
C  0.00315658 -0.00955327 0.00803602
C  0.00560352 0.00612212 -0.00407100
H  -0.00411664 0.01595808 0.00209715
H  -0.00094796 0.03522941 0.02528097
H  -0.00459987 -0.00250983 0.00657882
H  0.00264704 -0.04405321 -0.01068188
H  0.01788387 -0.01256639 -0.01518144
H  0.00556022 -0.03964150 -0.00525174
12
MD Step 48 Units = [Angstroms / fs]
C  -0.00628594 0.00070827 0.00237218
C  0.00565005 0.01169444 -0.00111952
C  -0.00100823 -0.00260566 -0.00246855
C  0.00090808 0.00293573 0.00002283
C  0.00216834 -0.01091318 0.00809876
C  0.00616500 0.00689479 -0.00416898
H  -0.00216554 0.01794626 0.00004302
H  0.00117348 0.03251571 0.02539112
H  0.00144768 -0.00217725 0.00627703
H  0.01219330 -0.03278721 -0.01006766
H  0.01971147 -0.01193701 -0.01536404
H  0.00351964 -0.03854868 -0.00495492
12
MD Step 49 Units = [Angstroms / fs]
C  -0.00700366 0.00054118 0.00263397
C  0.00649192 0.01286785 -0.00119787
C  -0.00224424 -0.00327036 -0.00238205
C  0.00075988 0.00207602 -0.00012000
C  0.00119668 -0.01227153 0.00814266
C  0.00666281 0.00761199 -0.00424553
H  -0.00075688 0.01888018 -0.00175351
H  0.00424913 0.02798186 0.02543321
H  0.00727168 -0.00185398 0.00600965
H  0.02281228 -0.01850745 -0.00937751
H  0.02078073 -0.01049646 -0.01544478
H  0.00179939 -0.03682009 -0.00472124
12
MD Step 50 Units = [Angstroms / fs]
C  -0.00750580 0.00048208 0.00285957
C  0.00716953 0.01409028 -0.00125874
C  -0.00340086 -0.00391457 -0.00230038
C  0.00061411 0.00108662 -0.00026331
C  0.00025978 -0.01359687 0.00815948
C  0.00706504 0.00825414 -0.00430234
H  -0.00002235 0.01850923 -0.00323998
H  0.00799917 0.02201910 0.02537729
H  0.01213704 -0.00153030 0.00582037
H  0.03340901 -0.00320340 -0.00867616
H  0.02104892 -0.00830795 -0.01539860
H  0.00062316 -0.03430118 -0.00453649
12
MD Step 51 Units = [Angstroms / fs]
C  -0.00777899 0.00054354 0.00304270
C  0.00769910 0.01529092 -0.00131057
C  -0.00441694 -0.00452558 -0.00223270
C  0.00055681 0.00015795 -0.00039694
C  -0.00062618 -0.01485529 0.00816058
C  0.00735028 0.00880358 -0.00433674
H  -0.00004361 0.01681557 -0.00440930
H  0.01204262 0.01545888 0.02535296
H  0.01551626 -0.00121604 0.00576343
H  0.04286991 0.01074140 -0.00806709
H  0.02070116 -0.00561122 -0.01529994
H  0.00014793 -0.03113426 -0.00440992
12
MD Step 52 Units = [Angstroms / fs]
C  -0.00781989 0.00072845 0.00317991
C  0.00810321 0.01638671 -0.00135817
C  -0.00524873 -0.00508591 -0.00218536
C  0.00066273 -0.00055424 -0.00051434
C  -0.00144752 -0.01600490 0.00815549
C  0.00750429 0.00924043 -0.00434676
H  -0.00082337 0.01388588 -0.00528147
H  0.01593539 0.00920547 0.02544623
H  0.01710505 -0.00092645 0.00586246
H  0.05021495 0.02140635 -0.00760648
H  0.01995727 -0.00271114 -0.01521219
H  0.00043353 -0.02744731 -0.00434772
12
MD Step 53 Units = [Angstroms / fs]
C  -0.00763743 0.00102464 0.00327439
C  0.00841248 0.01729803 -0.00139154
C  -0.00587301 -0.00558416 -0.00215441
C  0.00097774 -0.00096424 -0.00061720
C  -0.00220421 -0.01700119 0.00813629
C  0.00751932 0.00955165 -0.00433473
H  -0.00226790 0.00981886 -0.00587675
H  0.01923380 0.00391225 0.02555345
H  0.01678340 -0.00067135 0.00609114
H  0.05471542 0.02787017 -0.00725975
H  0.01891652 0.00011924 -0.01510791
H  0.00143774 -0.02313288 -0.00433737
12
MD Step 54 Units = [Angstroms / fs]
C  -0.00725569 0.00140613 0.00332993
C  0.00865592 0.01796634 -0.00140694
C  -0.00628571 -0.00600978 -0.00213907
C  0.00150970 -0.00105899 -0.00070602
C  -0.00289773 -0.01780637 0.00810470
C  0.00739747 0.00973083 -0.00430083
H  -0.00418904 0.00493501 -0.00625831
H  0.02162017 0.00015524 0.02563832
H  0.01466751 -0.00047036 0.00642439
H  0.05622595 0.03003629 -0.00700184
H  0.01776053 0.00256315 -0.01500012
H  0.00305033 -0.01825019 -0.00437924
12
MD Step 55 Units = [Angstroms / fs]
C  -0.00671028 0.00183414 0.00335391
C  0.00885530 0.01835342 -0.00139393
C  -0.00649605 -0.00635654 -0.00213282
C  0.00223859 -0.00087574 -0.00078400
C  -0.00353165 -0.01838574 0.00805325
C  0.00714602 0.00977819 -0.00424801
H  -0.00630767 -0.00034322 -0.00648206
H  0.02284500 -0.00174813 0.02556968
H  0.01096586 -0.00034418 0.00681503
H  0.05477825 0.02830864 -0.00678173
H  0.01657784 0.00433629 -0.01484746
H  0.00509610 -0.01280545 -0.00446605
12
MD Step 56 Units = [Angstroms / fs]
C  -0.00604631 0.00226204 0.00335488
C  0.00902721 0.01844817 -0.00134418
C  -0.00652466 -0.00662304 -0.00212897
C  0.00312853 -0.00047629 -0.00085393
C  -0.00411113 -0.01871642 0.00797513
C  0.00677869 0.00970191 -0.00417911
H  -0.00829342 -0.00549721 -0.00661217
H  0.02281002 -0.00172531 0.02522829
H  0.00600631 -0.00031250 0.00721704
H  0.05065438 0.02339789 -0.00655811
H  0.01542484 0.00521788 -0.01460569
H  0.00735457 -0.00685950 -0.00459366
12
MD Step 57 Units = [Angstroms / fs]
C  -0.00531322 0.00264322 0.00334124
C  0.00918021 0.01825853 -0.00125002
C  -0.00639896 -0.00681057 -0.00211922
C  0.00413829 0.00007132 -0.00091840
C  -0.00463832 -0.01878451 0.00786167
C  0.00631346 0.00951482 -0.00409793
H  -0.00979471 -0.00995124 -0.00669694
H  0.02151311 0.00009332 0.02448962
H  0.00022086 -0.00039352 0.00758077
H  0.04421461 0.01609336 -0.00629537
H  0.01430630 0.00506309 -0.01421669
H  0.00955209 -0.00055147 -0.00475627
12
MD Step 58 Units = [Angstroms / fs]
C  -0.00455711 0.00293974 0.00331949
C  0.00931683 0.01780865 -0.00110980
C  -0.00615156 -0.00691868 -0.00209829
C  0.00522563 0.00070272 -0.00097881
C  -0.00511146 -0.01858853 0.00770946
C  0.00577177 0.00922960 -0.00400659
H  -0.01053730 -0.01322891 -0.00678105
H  0.01910959 0.00339277 0.02330227
H  -0.00588594 -0.00059686 0.00787239
H  0.03598099 0.00723477 -0.00597757
H  0.01320969 0.00385409 -0.01364805
H  0.01141831 0.00592461 -0.00495302
12
MD Step 59 Units = [Angstroms / fs]
C  -0.00381222 0.00312880 0.00329073
C  0.00944910 0.01715784 -0.00095534
C  -0.00582550 -0.00693798 -0.00208691
C  0.00634597 0.00136377 -0.00102909
C  -0.00553235 -0.01816449 0.00755817
C  0.00518305 0.00885469 -0.00389204
H  -0.01052694 -0.01524433 -0.00702853
H  0.01622335 0.00779297 0.02205216
H  -0.01184348 -0.00091335 0.00816936
H  0.02722631 -0.00217071 -0.00569630
H  0.01233209 0.00175673 -0.01308752
H  0.01289511 0.01238646 -0.00523804
12
MD Step 60 Units = [Angstroms / fs]
C  -0.00310018 0.00320367 0.00325653
C  0.00955959 0.01633329 -0.00079123
C  -0.00545284 -0.00685207 -0.00208532
C  0.00745689 0.00200367 -0.00106973
C  -0.00588018 -0.01751982 0.00741106
C  0.00456681 0.00838553 -0.00375395
H  -0.00973469 -0.01593347 -0.00745951
H  0.01311352 0.01289086 0.02078978
H  -0.01723732 -0.00133727 0.00846275
H  0.01840659 -0.01154509 -0.00545334
H  0.01161001 -0.00106131 -0.01254150
H  0.01380056 0.01872535 -0.00561621
12
MD Step 61 Units = [Angstroms / fs]
C  -0.00243018 0.00317118 0.00321782
C  0.00960189 0.01533150 -0.00059884
C  -0.00505448 -0.00663893 -0.00207604
C  0.00851369 0.00257162 -0.00110561
C  -0.00611185 -0.01663518 0.00724101
C  0.00393267 0.00780689 -0.00360390