 Entering Gaussian System, Link 0=g16
 AtFile(1): /software/gaussian/g16-c01/avx/g16/dftba.prm
            61.0 11502.0
            1.0 1.0 1.0
            1.0 1.0 16.0  0.00000   0.00004  -0.23860  -0.03300   0.34710   0.49190   0.41950   0.00000   0.00000   1.00000 -0.07200   0.00000   0.00000   0.00000   0.00000   0.00000
            1.0 1.0 10.0 1.0 0.641304657395E+00  0.114632662996E+01  -.365288387601E+01  0.158394703191E+02  -.141592496881E+02  -.238159619402E+02  0.205241730135E+02  0.344343368211E+02  -.222214687554E+02  -.357568673865E+02  0.382945224184E+02  -.100792152772E+02 0.107E+02
            1.0 1.0 10.0 0.0 0.556723386049E+00  0.116773802429E+01  -.871545263361E+01  0.517072651278E+02  -.113272980190E+03  0.734577892106E+02  0.102910344895E+03  -.138090485195E+03  -.615432886442E+02  0.181115155191E+03  -.110020274398E+03  0.234754476304E+02 0.107E+02
            1.0 1.0 11.0 2.0  0.13106932739537E+01 0.13389048240409E+01 0.48393613429292E+02 -.50454867468169E+03 0.30550014356689E+04 -.15526419153185E+05 0.82415588724071E+05 -.55511984183219E+06 0.58893962246289E+07 -.12613772832213E+09 0.71463513048036E+10 -.13096183990505E+13 0.207820408163E+01
            1.0 6.0 2.0
            1.0 6.0 9.0 1.0 0.702607065442E+00  0.116148874931E+01  0.898989257501E+01  -.546190551744E+02  0.105554308635E+03  0.108178710740E+02  -.217513061984E+03  0.118178940225E+03  0.231923038968E+03  -.351868840300E+03  0.183031502409E+03  -.345115911341E+02 0.107E+02
            1.0 6.0 9.0 0.0 0.842674881273E+00  0.111500963640E+01  -.438507682752E+02  0.174739650771E+03  -.111433557229E+03  -.323305806012E+03  0.222675427230E+03  0.486693341227E+03  -.267479383963E+03  -.587195494563E+03  0.623124834563E+03  -.174061020900E+03 0.107E+02
            1.0 6.0 10.0 1.0 0.825785607123E+00  0.111816094672E+01  -.152165873011E+02  0.661796499552E+02  -.507227564659E+02  -.134338755223E+03  0.118101249918E+03  0.208384865216E+03  -.162767677167E+03  -.260383427170E+03  0.341526636425E+03  -.111124099344E+03 0.107E+02
            1.0 6.0 10.0 0.0 0.565368860960E+00  0.116962777185E+01  -.789277280320E+01  0.472981986072E+02  -.103104583668E+03  0.571500476944E+02  0.125750379256E+03  -.145846263301E+03  -.961129146739E+02  0.231360769216E+03  -.136143344326E+03  0.284559957931E+02 0.107E+02
            1.0 6.0 11.0 2.0 0.15473385562802E+00 0.15171821924648E+01 -.13978144817150E+03 0.51806155014310E+03 -.86436212077002E+03 0.91874450134865E+03 -.78420829031957E+03 0.69671325654889E+03 -.86058608280289E+03 0.20933971665582E+04 -.11804235046673E+05 0.18035302759457E+06 0.349530612245E+01
            1.0 7.0 2.0
            1.0 7.0 9.0 1.0 0.713825970638E+00  0.113986827314E+01  0.873985465252E+01  -.364152603831E+02  0.232196426355E+02  0.830878576129E+02  -.606901861249E+02  -.134310634733E+03  0.937859543090E+02  0.163796448918E+03  -.206314783040E+03  0.651419014627E+02 0.107E+02
            1.0 7.0 9.0 0.0 0.821919292212E+00  0.112867599927E+01  -.188988908244E+02  0.753670434740E+02  -.417874351612E+02  -.162775418994E+03  0.917533327573E+02  0.255707007509E+03  -.107328730070E+03  -.329741771740E+03  0.327792829907E+03  -.901779160613E+02 0.107E+02
            1.0 7.0 10.0 1.0 0.803100794554E+00  0.113506027581E+01  -.774409994546E+01  0.329729368683E+02  -.191213534645E+02  -.877655954795E+02  0.570755729154E+02  0.139611723691E+03  -.826753158056E+02  -.182466424523E+03  0.220006923578E+03  -.705405132971E+02 0.107E+02
            1.0 7.0 10.0 0.0 0.572288566795E+00  0.117677487716E+01  -.498931408264E+01  0.297012159649E+02  -.631930423713E+02  0.275130341790E+02  0.964431639392E+02  -.935835472669E+02  -.873496432440E+02  0.174729644247E+03  -.988238582077E+02  0.204996743232E+02 0.107E+02
            1.0 7.0 11.0 2.0 0.79873965583603E+00 0.11820298873427E+01 0.37434254951650E+03 -.18116125338245E+04 0.27359116230094E+04 0.12655686829993E+04 -.95838720177555E+04 0.11947625839239E+05 -.14879587494500E+04 -.12161956114106E+05 0.14600854917846E+05 -.64254288476457E+04 0.395436734694E+01
            1.0 8.0 2.0
            1.0 8.0 9.0 1.0 0.766445368509E+00  0.113106755610E+01  0.968708969078E+01  -.406980228573E+02  0.252849218205E+02  0.967100883554E+02  -.708822039811E+02  -.152736962793E+03  0.104016648872E+03  0.187776733477E+03  -.228624124119E+03  0.694586817066E+02 0.107E+02
            1.0 8.0 9.0 0.0 0.895713061094E+00  0.111251579303E+01  -.343341243621E+02  0.135918867153E+03  -.839829722721E+02  -.252104180887E+03  0.165225737190E+03  0.375035848084E+03  -.191487431397E+03  -.454083479052E+03  0.469283626037E+03  -.129541950114E+03 0.107E+02
            1.0 8.0 10.0 1.0 0.829712063074E+00  0.113554622492E+01  -.581600633082E+01  0.221460068669E+02  0.242862412443E+01  -.100592250841E+03  0.408641503200E+02  0.157599932252E+03  -.683966428935E+02  -.208870107605E+03  0.230461049770E+03  -.706911358519E+02 0.107E+02
            1.0 8.0 10.0 0.0 0.643815744696E+00  0.116490847147E+01  -.619798544359E+01  0.407825569770E+02  -.102639634814E+03  0.927308674850E+02  0.629374554697E+02  -.131524454593E+03  -.303551132272E+02  0.155365896753E+03  -.104142060438E+03  0.240131975810E+02 0.107E+02
            1.0 8.0 11.0 2.0 0.18733122300583E+01 0.11218805249386E+01 0.10163687520114E+05 -.74069302495329E+05 0.17867870631307E+06 0.10591350762609E+06 -.17716179175287E+07 0.52876296983734E+07 -.89359027079937E+07 0.95372319567947E+07 -.61692549073633E+07 0.19028971771231E+07 0.346562077755E+01
            6.0 1.0 1.0
            6.0 1.0 10.0 1.0 0.825785607123E+00  0.111816094672E+01  -.152165873011E+02  0.661796499552E+02  -.507227564659E+02  -.134338755223E+03  0.118101249918E+03  0.208384865216E+03  -.162767677167E+03  -.260383427170E+03  0.341526636425E+03  -.111124099344E+03 0.107E+02
            6.0 1.0 10.0 0.0 0.565368860960E+00  0.116962777185E+01  -.789277280320E+01  0.472981986072E+02  -.103104583668E+03  0.571500476944E+02  0.125750379256E+03  -.145846263301E+03  -.961129146739E+02  0.231360769216E+03  -.136143344326E+03  0.284559957931E+02 0.107E+02
            6.0 1.0 11.0 2.0 0.15473385562802E+00 0.15171821924648E+01 -.13978144817150E+03 0.51806155014310E+03 -.86436212077002E+03 0.91874450134865E+03 -.78420829031957E+03 0.69671325654889E+03 -.86058608280289E+03 0.20933971665582E+04 -.11804235046673E+05 0.18035302759457E+06 0.349530612245E+01
            6.0 6.0 4.0
            6.0 6.0 16.0 0.00000  -0.19435511 -0.50489172, -0.0439, 0.341975   0.387425  0.3647 0.00000   2.00000   2.00000 -0.03100  -0.02500   0.00000  -0.02300   0.00000   0.00000
            6.0 6.0 6.0 1.0 0.337807819246E+00  0.131702664266E+01  -.161520394126E+01  0.137374546626E+02  -.596091174521E+02  0.172518404309E+03  -.314680557764E+03  0.388368437606E+03  -.349044039722E+03  0.212275676200E+03  -.787321554685E+02  0.157513021228E+02 0.107E+02
            6.0 6.0 6.0 0.0 0.835990855176E+00  0.111370557543E+01  -.108173991944E+03  0.447724442199E+03  -.344670172841E+03  -.743150492805E+03  0.672002594997E+03  0.114834672966E+04  -.857747953954E+03  -.137793224015E+04  0.164892840434E+04  -.484550560099E+03 0.107E+02
            6.0 6.0 7.0 1.0 0.175803616825E+00  0.154079526047E+01  0.493952282719E-01  -.333661062917E+00  0.131756712205E+01  -.440243801602E+01  0.277685638751E+01  -.444268834679E+01  0.673638533060E+01  -.614861480482E+01  0.611938075221E+01  -.658095446134E+01 0.107E+02
            6.0 6.0 7.0 0.0 0.573938135867E+00  0.120247720685E+01  -.721170182828E+00  0.585671365188E+01  -.187116335084E+02  0.224347711740E+02  0.183886774615E+02  -.372032565849E+02  -.181293506510E+02  0.597839392459E+02  -.408189094408E+02  0.101838293396E+02 0.107E+02
            6.0 6.0 9.0 1.0 0.731586334331E+00  0.116484194989E+01  0.138069422003E+02  -.858474504382E+02  0.168485242025E+03  0.382777992747E+02  -.437925585627E+03  0.293857065802E+03  0.459552822770E+03  -.909028326896E+03  0.605190735490E+03  -.146352158763E+03 0.107E+02
            6.0 6.0 9.0 0.0 0.881397587861E+00  0.111277240135E+01  -.697612063231E+02  0.290047147367E+03  -.222058070297E+03  -.488814549142E+03  0.423725384001E+03  0.747222815144E+03  -.522494274293E+03  -.886390816792E+03  0.102122817669E+04  -.292841188911E+03 0.107E+02
            6.0 6.0 10.0 1.0 0.695436724034E+00  0.118883024187E+01  -.408346469923E+01  0.253980644199E+02  -.441242909936E+02  -.603071202965E+02  0.204886825107E+03  -.942848658365E+02  -.235573017311E+03  0.441609029027E+03  -.333701174333E+03  0.974269951336E+02 0.107E+02
            6.0 6.0 10.0 0.0 0.602537840604E+00  0.116633669282E+01  -.106431205581E+02  0.669487147604E+02  -.155648642457E+03  0.102426591760E+03  0.183201356055E+03  -.256072957806E+03  -.130530855354E+03  0.398922865916E+03  -.249817356659E+03  0.522576936363E+02 0.107E+02
            6.0 6.0 11.0 2.0 0.32858384294646E+00 0.12786653454616E+01 -.10186468141544E+05 0.45771219467236E+05 -.72302124369399E+05 -.53094318779426E+04 0.23955783301078E+06 -.55989628551137E+06 0.82811606822549E+06 -.93863108980008E+06 0.84527697876357E+06 -.52093179148827E+06 0.429367346939E+01
            6.0 7.0 4.0
            6.0 7.0 6.0 1.0 0.455294455949E+00  0.122766213261E+01  -.589182236330E+01  0.457033048004E+02  -.157665348608E+03  0.289466252258E+03  -.200944270967E+03  -.201957721999E+03  0.583918977153E+03  -.592633239067E+03  0.294660778020E+03  -.566238443644E+02 0.107E+02
            6.0 7.0 6.0 0.0 0.897880643607E+00  0.111196445978E+01  -.981316612627E+02  0.406081306339E+03  -.302118463072E+03  -.707023371817E+03  0.612048489355E+03  0.109846366385E+04  -.780524603771E+03  -.134500179591E+04  0.157829763099E+04  -.461329596700E+03 0.107E+02
            6.0 7.0 7.0 1.0 0.191914705329E+00  0.154114958436E+01  0.386957014687E-01  -.280265614658E+00  0.121686914717E+01  -.462809276322E+01  0.236898068065E+01  -.425437059641E+01  0.718957287930E+01  -.700884194972E+01  0.777386433749E+01  -.988761693990E+01 0.107E+02
            6.0 7.0 7.0 0.0 0.574949759307E+00  0.121508984873E+01  -.451408642161E+00  0.378086079517E+01  -.125553479986E+02  0.158148407967E+02  0.140976512164E+02  -.270309066804E+02  -.147485600909E+02  0.454427296426E+02  -.314652688447E+02  0.818225217081E+01 0.107E+02
            6.0 7.0 9.0 1.0 0.474541318441E+00  0.123595187562E+01  -.265786085000E+01  0.212904480496E+02  -.762536990710E+02  0.143197359374E+03  -.772172370238E+02  -.164077918877E+03  0.380187573373E+03  -.399152810900E+03  0.224520318165E+03  -.498242096438E+02 0.107E+02
            6.0 7.0 9.0 0.0 0.928439131599E+00  0.111431044342E+01  -.545092060751E+02  0.228138919695E+03  -.173535436506E+03  -.397653837324E+03  0.336362670446E+03  0.617461969645E+03  -.411279731547E+03  -.753029362551E+03  0.849673885421E+03  -.241770673367E+03 0.107E+02
            6.0 7.0 10.0 1.0 0.457013316912E+00  0.126075768421E+01  0.122485382332E+01  -.995077692230E+01  0.371604251995E+02  -.752664223646E+02  0.416411269881E+02  0.686000678036E+02  -.153584013470E+03  0.176934281217E+03  -.128978840461E+03  0.390274983882E+02 0.107E+02
            6.0 7.0 10.0 0.0 0.645781051985E+00  0.116487556697E+01  -.856234330884E+01  0.537208554164E+02  -.121980035216E+03  0.654390088348E+02  0.181390110353E+03  -.214067657832E+03  -.155176372246E+03  0.381111972692E+03  -.226201750298E+03  0.453477200968E+02 0.107E+02
            6.0 7.0 11.0 2.0 0.39078232098457E+00 0.12491357428245E+01 0.20461959951467E+03 -.37783707417499E+03 -.74586996649899E+03 0.15706652068913E+04 0.56058998593115E+04 -.27136546031883E+05 0.57724635899374E+05 -.82027659533680E+05 0.84341814137072E+05 -.53934071443245E+05 0.419387755102E+01
            6.0 8.0 4.0
            6.0 8.0 6.0 1.0 0.398657426238E+00  0.125960672433E+01  -.233547306514E+01  0.175857047514E+02  -.594920033461E+02  0.105368508323E+03  -.441947254841E+02  -.153117093890E+03  0.325459491780E+03  -.324059890596E+03  0.163556112644E+03  -.309672341439E+02 0.107E+02
            6.0 8.0 6.0 0.0 0.887303918600E+00  0.111459001517E+01  -.744765560940E+02  0.306584512626E+03  -.221303406907E+03  -.546854719280E+03  0.449245091302E+03  0.852204816968E+03  -.563270626727E+03  -.105020665187E+04  0.119142961117E+04  -.342574502211E+03 0.107E+02
            6.0 8.0 7.0 1.0 0.181615944243E+00  0.156887591836E+01  0.307748065885E-01  -.220813629880E+00  0.975789906845E+00  -.403029020955E+01  0.119522635863E+01  -.339130218007E+01  0.657364345085E+01  -.678821565250E+01  0.910721964636E+01  -.166311743703E+02 0.107E+02
            6.0 8.0 7.0 0.0 0.728949800414E+00  0.117950682650E+01  0.503264612955E+00  -.767831220382E+00  -.708305515095E+01  0.210611670096E+02  0.732759744813E+01  -.352423873228E+02  -.963212927759E+01  0.564537377118E+02  -.428779818990E+02  0.112818281334E+02 0.107E+02
            6.0 8.0 9.0 1.0 0.402073634692E+00  0.127454986285E+01  -.115314896974E+01  0.886471419039E+01  -.311187427177E+02  0.578750975483E+02  -.190804357916E+02  -.934347950371E+02  0.186705634297E+03  -.207476035037E+03  0.128570548330E+03  -.297300538821E+02 0.107E+02
            6.0 8.0 9.0 0.0 0.935662537921E+00  0.111316668135E+01  -.469283767745E+02  0.192426880061E+03  -.132831950617E+03  -.354846765456E+03  0.262970294812E+03  0.549222998899E+03  -.305550760559E+03  -.689830556297E+03  0.722286815838E+03  -.197034588305E+03 0.107E+02
            6.0 8.0 10.0 1.0 0.444338509544E+00  0.127647344162E+01  0.821514971854E+00  -.669901667632E+01  0.254286753463E+02  -.526800631755E+02  0.201258848817E+02  0.669929237057E+02  -.125563244388E+03  0.144247991895E+03  -.110329689099E+03  0.341276607252E+02 0.107E+02
            6.0 8.0 10.0 0.0 0.661831408739E+00  0.116260981068E+01  -.713312192099E+01  0.441782669953E+02  -.973192844175E+02  0.427461296507E+02  0.160511682842E+03  -.161963574649E+03  -.153267104555E+03  0.307877897972E+03  -.162787838621E+03  0.281267067758E+02 0.107E+02
            6.0 8.0 11.0 2.0 0.68316450804894E+00 0.12443736513673E+01 0.49027709423005E+03 -.23987830282519E+04 0.16449785479938E+04 0.22607568177518E+05 -.11704279821296E+06 0.35520271058365E+06 -.83935295087272E+06 0.17065149040177E+07 -.30367528969054E+07 0.40628328028492E+07 0.419387755102E+01
            7.0 1.0 1.0
            7.0 1.0 10.0 1.0 0.803100794554E+00  0.113506027581E+01  -.774409994546E+01  0.329729368683E+02  -.191213534645E+02  -.877655954795E+02  0.570755729154E+02  0.139611723691E+03  -.826753158056E+02  -.182466424523E+03  0.220006923578E+03  -.705405132971E+02 0.107E+02
            7.0 1.0 10.0 0.0 0.572288566795E+00  0.117677487716E+01  -.498931408264E+01  0.297012159649E+02  -.631930423713E+02  0.275130341790E+02  0.964431639392E+02  -.935835472669E+02  -.873496432440E+02  0.174729644247E+03  -.988238582077E+02  0.204996743232E+02 0.107E+02
            7.0 1.0 11.0 2.0 0.79873965583603E+00 0.11820298873427E+01 0.37434254951650E+03 -.18116125338245E+04 0.27359116230094E+04 0.12655686829993E+04 -.95838720177555E+04 0.11947625839239E+05 -.14879587494500E+04 -.12161956114106E+05 0.14600854917846E+05 -.64254288476457E+04 0.395436734694E+01
            7.0 6.0 4.0
            7.0 6.0 6.0 1.0 0.455294455949E+00  0.122766213261E+01  -.589182236330E+01  0.457033048004E+02  -.157665348608E+03  0.289466252258E+03  -.200944270967E+03  -.201957721999E+03  0.583918977153E+03  -.592633239067E+03  0.294660778020E+03  -.566238443644E+02 0.107E+02
            7.0 6.0 6.0 0.0 0.897880643607E+00  0.111196445978E+01  -.981316612627E+02  0.406081306339E+03  -.302118463072E+03  -.707023371817E+03  0.612048489355E+03  0.109846366385E+04  -.780524603771E+03  -.134500179591E+04  0.157829763099E+04  -.461329596700E+03 0.107E+02
            7.0 6.0 7.0 1.0 0.191914705329E+00  0.154114958436E+01  0.386957014687E-01  -.280265614658E+00  0.121686914717E+01  -.462809276322E+01  0.236898068065E+01  -.425437059641E+01  0.718957287930E+01  -.700884194972E+01  0.777386433749E+01  -.988761693990E+01 0.107E+02
            7.0 6.0 7.0 0.0 0.574949759307E+00  0.121508984873E+01  -.451408642161E+00  0.378086079517E+01  -.125553479986E+02  0.158148407967E+02  0.140976512164E+02  -.270309066804E+02  -.147485600909E+02  0.454427296426E+02  -.314652688447E+02  0.818225217081E+01 0.107E+02
            7.0 6.0 9.0 1.0 0.851792603729E+00  0.110952386502E+01  0.661699341864E+02  -.267513882444E+03  0.189008136147E+03  0.472188481436E+03  -.425341576806E+03  -.697216710922E+03  0.641070921279E+03  0.804414160159E+03  -.123217158162E+04  0.449899713719E+03 0.107E+02
            7.0 6.0 9.0 0.0 0.854979306459E+00  0.112982724014E+01  -.278511600285E+02  0.113811998870E+03  -.680016904879E+02  -.251686634777E+03  0.159149372652E+03  0.408993557160E+03  -.196838836600E+03  -.539664404574E+03  0.557634275027E+03  -.155719358402E+03 0.107E+02
            7.0 6.0 10.0 1.0 0.457013316912E+00  0.126075768421E+01  0.122485382332E+01  -.995077692230E+01  0.371604251995E+02  -.752664223646E+02  0.416411269881E+02  0.686000678036E+02  -.153584013470E+03  0.176934281217E+03  -.128978840461E+03  0.390274983882E+02 0.107E+02
            7.0 6.0 10.0 0.0 0.645781051985E+00  0.116487556697E+01  -.856234330884E+01  0.537208554164E+02  -.121980035216E+03  0.654390088348E+02  0.181390110353E+03  -.214067657832E+03  -.155176372246E+03  0.381111972692E+03  -.226201750298E+03  0.453477200968E+02 0.107E+02
            7.0 6.0 11.0 2.0 0.39078232098457E+00 0.12491357428245E+01 0.20461959951467E+03 -.37783707417499E+03 -.74586996649899E+03 0.15706652068913E+04 0.56058998593115E+04 -.27136546031883E+05 0.57724635899374E+05 -.82027659533680E+05 0.84341814137072E+05 -.53934071443245E+05 0.419387755102E+01
            7.0 7.0 4.0
            7.0 7.0 16.0 0.0    -0.26072798 -0.64, -0.1112  0.40538   0.45642 0.4309 0.00000   3.00000   2.00000 -0.03300  -0.02700   0.00000  -0.02600   0.00000   0.00000
            7.0 7.0 6.0 1.0 0.415517613301E+00  0.125774169378E+01  -.248439062557E+01  0.185493353506E+02  -.611606381252E+02  0.100008215261E+03  -.104591388652E+02  -.225943091021E+03  0.418661232469E+03  -.406585786003E+03  0.207536509688E+03  -.405583555474E+02 0.107E+02
            7.0 7.0 6.0 0.0 0.963681075618E+00  0.111033026639E+01  -.100476242640E+03  0.414903544861E+03  -.300548606324E+03  -.743364407278E+03  0.625512445972E+03  0.115896726877E+04  -.799685401437E+03  -.144015625704E+04  0.167517475859E+04  -.489590092521E+03 0.107E+02
            7.0 7.0 7.0 1.0 0.210283828422E+00  0.153852366977E+01  0.321575981319E-01  -.249719774770E+00  0.118554179086E+01  -.505586709785E+01  0.178548405221E+01  -.425108275047E+01  0.846351272641E+01  -.862881175254E+01  0.103630354294E+02  -.151650492581E+02 0.107E+02
            7.0 7.0 7.0 0.0 0.480487011879E+00  0.125570903535E+01  -.379049463497E+00  0.257449459253E+01  -.698830935177E+01  0.626659588094E+01  0.122887123084E+02  -.122959880732E+02  -.167494921161E+02  0.304817183576E+02  -.191469515889E+02  0.504773490664E+01 0.107E+02
            7.0 7.0 9.0 1.0 0.904928833207E+00  0.111180611868E+01  0.592245783724E+02  -.241042381109E+03  0.162091708941E+03  0.472558022856E+03  -.422386789275E+03  -.708454417358E+03  0.678587436912E+03  0.840572866369E+03  -.136033832907E+04  0.520137581435E+03 0.107E+02
            7.0 7.0 9.0 0.0 0.992127507929E+00  0.111275436154E+01  -.535399215656E+02  0.216371111974E+03  -.133967558878E+03  -.433303758766E+03  0.294821498899E+03  0.674728153795E+03  -.358839094668E+03  -.856233962981E+03  0.898098764554E+03  -.248281971314E+03 0.107E+02
            7.0 7.0 10.0 1.0 0.479793852446E+00  0.126654242355E+01  0.960302193962E+00  -.793317337367E+01  0.301613550934E+02  -.610333665636E+02  0.185234115268E+02  0.921482489863E+02  -.169403677371E+03  0.194103192117E+03  -.148939128997E+03  0.474431331599E+02 0.107E+02
            7.0 7.0 10.0 0.0 0.626390904211E+00  0.118306614782E+01  -.444747723185E+01  0.280505132556E+02  -.640759045780E+02  0.311744477741E+02  0.114156772063E+03  -.123194416271E+03  -.115966650921E+03  0.252874616748E+03  -.146658229750E+03  0.291453825208E+02 0.107E+02
            7.0 7.0 11.0 2.0 0.30667674582775E+00 0.13090809527115E+01 0.22342113741871E+03 -.35930298751687E+03 -.83272033424461E+03 0.14792185693920E+04 0.63621134614839E+04 -.31441070814271E+05 0.77263580931070E+05 -.14402321632650E+06 0.23135290924970E+06 -.29703958013692E+06 0.419387755102E+01
            7.0 8.0 4.0
            7.0 8.0 6.0 1.0 0.406421618482E+00  0.127164245843E+01  -.139777856836E+01  0.107883789368E+02  -.375717799318E+02  0.670620554461E+02  -.112837067289E+02  -.145908330075E+03  0.279367530595E+03  -.281937412792E+03  0.144667198374E+03  -.264466585011E+02 0.107E+02
            7.0 8.0 6.0 0.0 0.948863715003E+00  0.111447699148E+01  -.669678532321E+02  0.275460568674E+03  -.190451235890E+03  -.518141418329E+03  0.403419550945E+03  0.816446172514E+03  -.505574318441E+03  -.103155464000E+04  0.114664208699E+04  -.328502558718E+03 0.107E+02
            7.0 8.0 7.0 1.0 0.195239790644E+00  0.157407245685E+01  0.242533130773E-01  -.185571004487E+00  0.898638458648E+00  -.425717343099E+01  0.335045308922E+00  -.317015299389E+01  0.752542054802E+01  -.840842408665E+01  0.132271773920E+02  -.320092941015E+02 0.107E+02
            7.0 8.0 7.0 0.0 0.524786249507E+00  0.124875314707E+01  -.212654437210E+00  0.175095367833E+01  -.585035103510E+01  0.743808983196E+01  0.931068898374E+01  -.128439239831E+02  -.128599274699E+02  0.285710002742E+02  -.198660970284E+02  0.569347308966E+01 0.107E+02
            7.0 8.0 9.0 1.0 0.631987124681E+00  0.116374454172E+01  -.124539402920E+02  0.791494820607E+02  -.183323232622E+03  0.102726842844E+03  0.295297465827E+03  -.429754763978E+03  -.189516498259E+03  0.881815127337E+03  -.819877825035E+03  0.276834056304E+03 0.107E+02
            7.0 8.0 9.0 0.0 0.100969880805E+01  0.111043238212E+01  -.504122458979E+02  0.205125656067E+03  -.140705349968E+03  -.366762718552E+03  0.263283606025E+03  0.558528543572E+03  -.291943753329E+03  -.693546597432E+03  0.704570153879E+03  -.188258927649E+03 0.107E+02
            7.0 8.0 10.0 1.0 0.466728453105E+00  0.128271914315E+01  0.625554049986E+00  -.518182736309E+01  0.200627214825E+02  -.419257658568E+02  0.467598509438E+01  0.772902217527E+02  -.126383724177E+03  0.147603781195E+03  -.120070058224E+03  0.390314073945E+02 0.107E+02
            7.0 8.0 10.0 0.0 0.642224520445E+00  0.118307691765E+01  -.357727883093E+01  0.227501558092E+02  -.528853139693E+02  0.290139349748E+02  0.861317641002E+02  -.922886476713E+02  -.889558854201E+02  0.179125116963E+03  -.947154793204E+02  0.164346584947E+02 0.107E+02
            7.0 8.0 11.0 2.0 0.59179774609555E-01 0.15710995965165E+01 0.59010607276753E+03 -.45462616554762E+03 -.11300927397826E+04 0.62128425030204E+03 0.29862757832429E+04 -.67799732332882E+04 0.97507566956535E+04 -.14946920938243E+05 0.37151449846012E+05 -.21710296251485E+06 0.387453061224E+01
            8.0 1.0 1.0
            8.0 1.0 10.0 1.0 0.829712063074E+00  0.113554622492E+01  -.581600633082E+01  0.221460068669E+02  0.242862412443E+01  -.100592250841E+03  0.408641503200E+02  0.157599932252E+03  -.683966428935E+02  -.208870107605E+03  0.230461049770E+03  -.706911358519E+02 0.107E+02
            8.0 1.0 10.0 0.0 0.643815744696E+00  0.116490847147E+01  -.619798544359E+01  0.407825569770E+02  -.102639634814E+03  0.927308674850E+02  0.629374554697E+02  -.131524454593E+03  -.303551132272E+02  0.155365896753E+03  -.104142060438E+03  0.240131975810E+02 0.107E+02
            8.0 1.0 11.0 2.0 0.18733122300583E+01 0.11218805249386E+01 0.10163687520114E+05 -.74069302495329E+05 0.17867870631307E+06 0.10591350762609E+06 -.17716179175287E+07 0.52876296983734E+07 -.89359027079937E+07 0.95372319567947E+07 -.61692549073633E+07 0.19028971771231E+07 0.346562077755E+01
            8.0 6.0 4.0
            8.0 6.0 6.0 1.0 0.398657426238E+00  0.125960672433E+01  -.233547306514E+01  0.175857047514E+02  -.594920033461E+02  0.105368508323E+03  -.441947254841E+02  -.153117093890E+03  0.325459491780E+03  -.324059890596E+03  0.163556112644E+03  -.309672341439E+02 0.107E+02
            8.0 6.0 6.0 0.0 0.887303918600E+00  0.111459001517E+01  -.744765560940E+02  0.306584512626E+03  -.221303406907E+03  -.546854719280E+03  0.449245091302E+03  0.852204816968E+03  -.563270626727E+03  -.105020665187E+04  0.119142961117E+04  -.342574502211E+03 0.107E+02
            8.0 6.0 7.0 1.0 0.181615944243E+00  0.156887591836E+01  0.307748065885E-01  -.220813629880E+00  0.975789906845E+00  -.403029020955E+01  0.119522635863E+01  -.339130218007E+01  0.657364345085E+01  -.678821565250E+01  0.910721964636E+01  -.166311743703E+02 0.107E+02
            8.0 6.0 7.0 0.0 0.728949800414E+00  0.117950682650E+01  0.503264612955E+00  -.767831220382E+00  -.708305515095E+01  0.210611670096E+02  0.732759744813E+01  -.352423873228E+02  -.963212927759E+01  0.564537377118E+02  -.428779818990E+02  0.112818281334E+02 0.107E+02
            8.0 6.0 9.0 1.0 0.785409361124E+00  0.113401398542E+01  0.148385525630E+02  -.500248095870E+02  -.225513870869E+02  0.238937571839E+03  -.899810904347E+02  -.373529459041E+03  0.206611016271E+03  0.468657619257E+03  -.621191543474E+03  0.228776684603E+03 0.107E+02
            8.0 6.0 9.0 0.0 0.945688813923E+00  0.111405860179E+01  -.452886661238E+02  0.181130454410E+03  -.104873548950E+03  -.375773102560E+03  0.235789405983E+03  0.581260252536E+03  -.282085597893E+03  -.732311856490E+03  0.745225212718E+03  -.203206649696E+03 0.107E+02
            8.0 6.0 10.0 1.0 0.444338509544E+00  0.127647344162E+01  0.821514971854E+00  -.669901667632E+01  0.254286753463E+02  -.526800631755E+02  0.201258848817E+02  0.669929237057E+02  -.125563244388E+03  0.144247991895E+03  -.110329689099E+03  0.341276607252E+02 0.107E+02
            8.0 6.0 10.0 0.0 0.661831408739E+00  0.116260981068E+01  -.713312192099E+01  0.441782669953E+02  -.973192844175E+02  0.427461296507E+02  0.160511682842E+03  -.161963574649E+03  -.153267104555E+03  0.307877897972E+03  -.162787838621E+03  0.281267067758E+02 0.107E+02
            8.0 6.0 11.0 2.0 0.68316450804894E+00 0.12443736513673E+01 0.49027709423005E+03 -.23987830282519E+04 0.16449785479938E+04 0.22607568177518E+05 -.11704279821296E+06 0.35520271058365E+06 -.83935295087272E+06 0.17065149040177E+07 -.30367528969054E+07 0.40628328028492E+07 0.419387755102E+01
            8.0 7.0 4.0
            8.0 7.0 6.0 1.0 0.406421618482E+00  0.127164245843E+01  -.139777856836E+01  0.107883789368E+02  -.375717799318E+02  0.670620554461E+02  -.112837067289E+02  -.145908330075E+03  0.279367530595E+03  -.281937412792E+03  0.144667198374E+03  -.264466585011E+02 0.107E+02
            8.0 7.0 6.0 0.0 0.948863715003E+00  0.111447699148E+01  -.669678532321E+02  0.275460568674E+03  -.190451235890E+03  -.518141418329E+03  0.403419550945E+03  0.816446172514E+03  -.505574318441E+03  -.103155464000E+04  0.114664208699E+04  -.328502558718E+03 0.107E+02
            8.0 7.0 7.0 1.0 0.195239790644E+00  0.157407245685E+01  0.242533130773E-01  -.185571004487E+00  0.898638458648E+00  -.425717343099E+01  0.335045308922E+00  -.317015299389E+01  0.752542054802E+01  -.840842408665E+01  0.132271773920E+02  -.320092941015E+02 0.107E+02
            8.0 7.0 7.0 0.0 0.524786249507E+00  0.124875314707E+01  -.212654437210E+00  0.175095367833E+01  -.585035103510E+01  0.743808983196E+01  0.931068898374E+01  -.128439239831E+02  -.128599274699E+02  0.285710002742E+02  -.198660970284E+02  0.569347308966E+01 0.107E+02
            8.0 7.0 9.0 1.0 0.641122728591E+00  0.116422529328E+01  -.113750690846E+02  0.718793487683E+02  -.163552330843E+03  0.798343044196E+02  0.288488053024E+03  -.377184187627E+03  -.217200456870E+03  0.816073880365E+03  -.725273633807E+03  0.239064975870E+03 0.107E+02
            8.0 7.0 9.0 0.0 0.993822186757E+00  0.111612835723E+01  -.336100191737E+02  0.128471943555E+03  -.442871650432E+02  -.334052541180E+03  0.155644796813E+03  0.523487360946E+03  -.193557886350E+03  -.680484397188E+03  0.650916533898E+03  -.172669704016E+03 0.107E+02
            8.0 7.0 10.0 1.0 0.466728453105E+00  0.128271914315E+01  0.625554049986E+00  -.518182736309E+01  0.200627214825E+02  -.419257658568E+02  0.467598509438E+01  0.772902217527E+02  -.126383724177E+03  0.147603781195E+03  -.120070058224E+03  0.390314073945E+02 0.107E+02
            8.0 7.0 10.0 0.0 0.642224520445E+00  0.118307691765E+01  -.357727883093E+01  0.227501558092E+02  -.528853139693E+02  0.290139349748E+02  0.861317641002E+02  -.922886476713E+02  -.889558854201E+02  0.179125116963E+03  -.947154793204E+02  0.164346584947E+02 0.107E+02
            8.0 7.0 11.0 2.0 0.59179774609555E-01 0.15710995965165E+01 0.59010607276753E+03 -.45462616554762E+03 -.11300927397826E+04 0.62128425030204E+03 0.29862757832429E+04 -.67799732332882E+04 0.97507566956535E+04 -.14946920938243E+05 0.37151449846012E+05 -.21710296251485E+06 0.387453061224E+01
            8.0 8.0 4.0
            8.0 8.0 16.0 0.0 -0.33213167 -0.87883246, -0.05414, 0.467495  0.523305   0.4954 0.00000   4.00000   2.00000 -0.03500  -0.03000   0.00000  -0.02800   0.00000   0.00000
            8.0 8.0 6.0 1.0 0.344968870563E+00  0.131123006167E+01  -.644867885782E+00  0.477243155074E+01  -.162166865210E+02  0.279629170118E+02  0.883188536721E+01  -.933228423785E+02  0.163238148414E+03  -.176426862157E+03  0.953648813015E+02  -.164615117617E+02 0.107E+02
            8.0 8.0 6.0 0.0 0.927140325377E+00  0.111833442234E+01  -.478295413815E+02  0.195552375344E+03  -.129827507984E+03  -.377656612631E+03  0.271740380155E+03  0.597776174534E+03  -.328925090245E+03  -.758408781169E+03  0.802921980933E+03  -.224541209965E+03 0.107E+02
            8.0 8.0 7.0 1.0 0.224109630556E+00  0.153980112938E+01  0.210900095990E-01  -.175322196299E+00  0.924212234176E+00  -.475060295895E+01  0.933907573289E+00  -.528505483893E+01  0.945901471394E+01  -.786525101355E+01  0.899238314140E+01  -.145989856920E+02 0.107E+02
            8.0 8.0 7.0 0.0 0.402049067652E+00  0.129323134942E+01  -.173313295556E+00  0.109939652269E+01  -.274492892601E+01  0.170034678127E+01  0.781195476010E+01  -.350564998539E+01  -.126667276992E+02  0.167241501452E+02  -.996265310138E+01  0.281822099199E+01 0.107E+02
            8.0 8.0 9.0 1.0 0.595973342715E+00  0.118554042337E+01  -.485424486205E+01  0.309277671761E+02  -.710860911703E+02  0.281012474684E+02  0.169797794007E+03  -.213086616766E+03  -.147598546076E+03  0.544464182583E+03  -.528711674643E+03  0.193407334458E+03 0.107E+02
            8.0 8.0 9.0 0.0 0.945714804238E+00  0.112417727789E+01  -.196136141445E+02  0.732431251972E+02  -.174623767998E+02  -.204568119727E+03  0.693293171142E+02  0.325029594136E+03  -.722674169775E+02  -.434329035353E+03  0.372552074670E+03  -.920411764487E+02 0.107E+02
            8.0 8.0 10.0 1.0 0.444677589421E+00  0.130131584907E+01  0.403028964457E+00  -.329802070677E+01  0.127540108922E+02  -.264674126410E+02  -.108119472784E+02  0.759158750012E+02  -.109637373160E+03  0.135406231857E+03  -.121439609521E+03  0.421982356285E+02 0.107E+02
            8.0 8.0 10.0 0.0 0.652170977860E+00  0.118106832473E+01  -.298613327629E+01  0.185992716601E+02  -.416034401195E+02  0.187439594626E+02  0.719066892541E+02  -.613226047014E+02  -.810035154389E+02  0.122465137323E+03  -.472346241714E+02  0.346601311708E+01 0.107E+02
            8.0 8.0 11.0 2.0 0.10405775074615E+01 0.11480475188093E+01 0.55965892435482E+03 -.16961441338315E+04 -.20416223921320E+04 0.11737571183737E+05 0.48126517039926E+04 -.84954597577396E+05 0.17219837373920E+06 -.14449694829545E+06 0.19994340015494E+05 0.35869916646521E+05 0.419387755102E+01
            21.0 21.0 10.0
            21.0 21.0 16.0 -0.12385  -0.05443  -0.15260  -0.00625   0.32717   0.13784   0.18881   1.00000   0.00000   2.00000 -0.01300  -0.01100  -0.00500  -0.01400  -0.00200  -0.01300
            21.0 21.0 1.0 1.0 0.568984419109E+00  0.127721616102E+01  0.417550505579E+01  -.457512861446E+02  0.169437032114E+03  -.402702992612E+03  0.705338574260E+03  -.935524169359E+03  0.973023082907E+03  -.783437525837E+03  0.408838707308E+03  -.985442984463E+02 0.107E+02
            21.0 21.0 1.0 0.0 0.908512682448E+00  0.110131453988E+01  -.300211813530E+03  0.119420465332E+04  -.699212573139E+03  -.197400845524E+04  0.134497496236E+04  0.275448724493E+04  -.175064578129E+04  -.310500125014E+04  0.362402756217E+04  -.108819143540E+04 0.107E+02
            21.0 21.0 2.0 1.0 0.114526566094E+00  0.164832749963E+01  0.440433664859E-01  -.207142512314E+00  0.391800294699E+00  0.184511993703E+01  0.326219394208E+01  -.107767195890E+02  -.980361066168E+01  0.242624868725E+02  -.272421239456E+02  0.508267861937E+02 0.107E+02
            21.0 21.0 2.0 0.0 0.712722033262E+00  0.110970527834E+01  -.574936557014E+02  0.234336562631E+03  -.193743852167E+03  -.327296893967E+03  0.320496179937E+03  0.485171229622E+03  -.400614129130E+03  -.531227888923E+03  0.691570633801E+03  -.220405835185E+03 0.107E+02
            21.0 21.0 3.0 1.0 0.137519872220E+00  0.167164273922E+01  -.466059985147E-02  0.240220864448E-01  -.313095033986E-01  -.145849144948E+01  -.404396950786E+01  -.205245549678E+00  0.519925784772E+01  -.576715910413E+01  0.137922382980E+02  -.104618257154E+03 0.107E+02
            21.0 21.0 3.0 0.0 0.491764248432E+00  0.121320485488E+01  -.267904038917E-01  0.682383452699E+00  -.381913744520E+01  0.789138088757E+01  0.462056229833E+01  -.130980981470E+02  -.117593678244E+01  0.160466424533E+02  -.147506089259E+02  0.466719874614E+01 0.107E+02
            21.0 21.0 4.0 1.0 0.469492748403E+00  0.127343530264E+01  0.116394563353E+02  -.984778922913E+02  0.333465788701E+03  -.656504295801E+03  0.921592285506E+03  -.975705776132E+03  0.752258209587E+03  -.473594109310E+03  0.287702674225E+03  -.106684628176E+03 0.107E+02
            21.0 21.0 4.0 0.0 0.676741629838E+00  0.113190659765E+01  -.146084819693E+03  0.550954583922E+03  -.173153986027E+03  -.115512761859E+04  0.406101518509E+03  0.177643885363E+04  -.590003524631E+03  -.217763576447E+04  0.204138626206E+04  -.533121995610E+03 0.107E+02
            21.0 21.0 5.0 1.0 0.635462433100E+00  0.119528789848E+01  -.956002015948E+01  0.617594048657E+02  -.126462894815E+03  0.913701624603E+02  0.579793965219E+02  -.214094792204E+03  0.251274917907E+03  -.202933716264E+03  0.153627297145E+03  -.640691527510E+02 0.107E+02
            21.0 21.0 5.0 0.0 0.824676304955E+00  0.109113122225E+01  0.907428518306E+02  -.190060482861E+03  -.165769633636E+03  0.271069666880E+03  0.381186149330E+03  -.117147638728E+03  -.534464251993E+03  -.784193296871E+02  0.560920908105E+03  -.218062990537E+03 0.107E+02
            21.0 21.0 6.0 1.0 0.850944966076E+00  0.114961339202E+01  0.848473655139E+03  -.392064009084E+04  0.596533247063E+04  -.351588671217E+03  -.871474813416E+04  0.692630599049E+04  0.656320684497E+04  -.150799018378E+05  0.104760422334E+05  -.271937062694E+04 0.107E+02
            21.0 21.0 6.0 0.0 0.667677730286E+00  0.110849099423E+01  0.152014505564E+04  -.517538907616E+04  0.177568156415E+04  0.938606466675E+04  -.424842826504E+04  -.131623007189E+05  0.628086637643E+04  0.147611460477E+05  -.154999375112E+05  0.436402829544E+04 0.107E+02
            21.0 21.0 7.0 1.0 0.100929671526E+01  0.114192530283E+01  -.283412576009E+03  0.117076613519E+04  -.155544492283E+04  -.106911896860E+03  0.215523422951E+04  -.124490447133E+04  -.186277680394E+04  0.316425201926E+04  -.182083092539E+04  0.381850651696E+03 0.107E+02
            21.0 21.0 7.0 0.0 0.838733762496E+00  0.106950452913E+01  -.635816122224E+03  0.131395573445E+04  0.807588869816E+03  -.178669417771E+04  -.187346471973E+04  0.111733272085E+04  0.280275165588E+04  -.106980723727E+03  -.299413788147E+04  0.135665126123E+04 0.107E+02
            21.0 21.0 8.0 1.0 0.529231578112E+00  0.125850001442E+01  0.911482078437E+01  -.782930172736E+02  0.252339968356E+03  -.456948408553E+03  0.589586183402E+03  -.566156152653E+03  0.374927661661E+03  -.230429757784E+03  0.183883216193E+03  -.812797495807E+02 0.107E+02
            21.0 21.0 8.0 0.0 0.795835524801E+00  0.110184067638E+01  -.379945766451E+03  0.133128257512E+04  -.529563541793E+03  -.216999331797E+04  0.883770541649E+03  0.286653914291E+04  -.966371303932E+03  -.309106528541E+04  0.269151428827E+04  -.636247319605E+03 0.107E+02
            21.0 21.0 9.0 1.0 0.918622165918E+00  0.114661877862E+01  0.743085250447E+03  -.328573275893E+04  0.478688293880E+04  -.178297713413E+03  -.676869604112E+04  0.517343872622E+04  0.515151768927E+04  -.115785804463E+05  0.806349534180E+04  -.211307776328E+04 0.107E+02
            21.0 21.0 9.0 0.0 0.729174182490E+00  0.110693830155E+01  0.917629519445E+03  -.322275683076E+04  0.122582677996E+04  0.580229301540E+04  -.287510916928E+04  -.799184033177E+04  0.404942813809E+04  0.889817837224E+04  -.948986788235E+04  0.268680453805E+04 0.107E+02
            21.0 21.0 10.0 1.0 0.985153228827E+00  0.114302215355E+01  -.626780191544E+03  0.265401253971E+04  -.367866312065E+04  -.400413946054E+02  0.519792083121E+04  -.370432206932E+04  -.412134157929E+04  0.882465880874E+04  -.610288198059E+04  0.160137544397E+04 0.107E+02
            21.0 21.0 10.0 0.0 0.795937865972E+00  0.110300393706E+01  -.646831559307E+03  0.238508746653E+04  -.117828082961E+04  -.392013322666E+04  0.233628736481E+04  0.529194385115E+04  -.303163118500E+04  -.582330345868E+04  0.642885260446E+04  -.184137474515E+04 0.107E+02
            21.0 21.0 11.0 2.0 0.23793825752632E+00 0.13062443921601E+01 0.39583578245704E+04 -.54617316377245E+04 -.18165807247018E+05 0.85669482647985E+04 0.29396626393686E+06 -.13482753258379E+07 0.38556592621587E+07 -.92627660097480E+07 0.21066467873675E+08 -.42900950374212E+08 0.535151020408E+01
            21.0 1.0 1.0
            21.0 1.0 10.0 1.0 0.821633070798E+00  0.106847992167E+01  0.130324902221E+03  -.225951685690E+03  -.214632557679E+03  0.285941497063E+03  0.402433089726E+03  -.113393322339E+03  -.518966418740E+03  -.672487652757E+02  0.560746324951E+03  -.239604208542E+03 0.107E+02
            21.0 1.0 10.0 0.0 0.999150544406E+00  0.107406304359E+01  -.385854961307E+03  0.763293849243E+03  0.642352931205E+03  -.111470115145E+04  -.135670551675E+04  0.594004628439E+03  0.193736452159E+04  0.156549050666E+03  -.215305963137E+04  0.917061803837E+03 0.107E+02
            21.0 1.0 11.0 2.0 0.23793825752632E+00 0.13062443921601E+01 0.39583578245704E+04 -.54617316377245E+04 -.18165807247018E+05 0.85669482647985E+04 0.29396626393686E+06 -.13482753258379E+07 0.38556592621587E+07 -.92627660097480E+07 0.21066467873675E+08 -.42900950374212E+08 0.535151020408E+01
            1.0 21.0 3.0
            1.0 21.0 8.0 1.0 0.541520208002E+00  0.121037096716E+01  -.433157351357E+01  0.326605858027E+02  -.990429406155E+02  0.115343652402E+03  0.248420894151E+02  -.245816934764E+03  0.352168734242E+03  -.274950830912E+03  0.128228675473E+03  -.292560754233E+02 0.107E+02
            1.0 21.0 8.0 0.0 0.775345116854E+00  0.111177249154E+01  0.510976010246E+02  -.218174778131E+03  0.186636789389E+03  0.337400277234E+03  -.332897016545E+03  -.520008737329E+03  0.409589049024E+03  0.603420745508E+03  -.731954980029E+03  0.214982690727E+03 0.107E+02
            1.0 21.0 9.0 1.0 0.852169128609E+00  0.110371903040E+01  -.258910410545E+03  0.960230641140E+03  -.525099524094E+03  -.147098800261E+04  0.978409574583E+03  0.194379833349E+04  -.126554010308E+04  -.211321165812E+04  0.250671781867E+04  -.755447270974E+03 0.107E+02
            1.0 21.0 9.0 0.0 0.885726422072E+00  0.108210268754E+01  0.391180567460E+03  -.737029023187E+03  -.736323393390E+03  0.110060207519E+04  0.149519859695E+04  -.527894686030E+03  -.208785654586E+04  -.244567361587E+03  0.230849410569E+04  -.961992926299E+03 0.107E+02
            1.0 21.0 10.0 1.0 0.821633070798E+00  0.106847992167E+01  0.130324902221E+03  -.225951685690E+03  -.214632557679E+03  0.285941497063E+03  0.402433089726E+03  -.113393322339E+03  -.518966418740E+03  -.672487652757E+02  0.560746324951E+03  -.239604208542E+03 0.107E+02
            1.0 21.0 10.0 0.0 0.999150544406E+00  0.107406304359E+01  -.385854961307E+03  0.763293849243E+03  0.642352931205E+03  -.111470115145E+04  -.135670551675E+04  0.594004628439E+03  0.193736452159E+04  0.156549050666E+03  -.215305963137E+04  0.917061803837E+03 0.107E+02
            1.0 21.0 11.0 2.0 0.23793825752632E+00 0.13062443921601E+01 0.39583578245704E+04 -.54617316377245E+04 -.18165807247018E+05 0.85669482647985E+04 0.29396626393686E+06 -.13482753258379E+07 0.38556592621587E+07 -.92627660097480E+07 0.21066467873675E+08 -.42900950374212E+08 0.535151020408E+01
            21.0 6.0 4.0
            21.0 6.0 6.0 1.0 0.704775005579E+00  0.115982820725E+01  -.104772385096E+03  0.579330890262E+03  -.931319665307E+03  -.110485898271E+03  0.170578167349E+04  -.109280735828E+04  -.155665341091E+04  0.289431058957E+04  -.178066346592E+04  0.397012186356E+03 0.107E+02
            21.0 6.0 6.0 0.0 0.595389515161E+00  0.116658474716E+01  -.126706131180E+02  0.161272838810E+03  -.541772633523E+03  0.332589876948E+03  0.976072665607E+03  -.114514290997E+04  -.965164285929E+03  0.235738080197E+04  -.149798939931E+04  0.335987175761E+03 0.107E+02
            21.0 6.0 7.0 1.0 0.382407649206E+00  0.125440526408E+01  -.975519323064E+00  0.567998742793E+01  -.113216542254E+02  0.780936076905E-01  0.181972697845E+02  -.115597891237E+02  -.129742233275E+02  0.375889759190E+02  -.368773995288E+02  0.123439875411E+02 0.107E+02
            21.0 6.0 7.0 0.0 0.624788552509E+00  0.114731298831E+01  0.700460419389E+01  -.361099851581E+02  0.429749926777E+02  0.532262560835E+02  -.647149950238E+02  -.992925817995E+02  0.738769228068E+02  0.126450921986E+03  -.143695079085E+03  0.404769777485E+02 0.107E+02
            21.0 6.0 9.0 1.0 0.819710880522E+00  0.110612796528E+01  -.205263028525E+03  0.764310176632E+03  -.435626815207E+03  -.119063241360E+04  0.897889885520E+03  0.160175243081E+04  -.132414116931E+04  -.177225531919E+04  0.256239684006E+04  -.899614232850E+03 0.107E+02
            21.0 6.0 9.0 0.0 0.953580107160E+00  0.106940453843E+01  0.918965339706E+03  -.198827634379E+04  -.109033606667E+04  0.279375872694E+04  0.273632218389E+04  -.187448764954E+04  -.430026167773E+04  0.299588295585E+03  0.463165559560E+04  -.212714023763E+04 0.107E+02
            21.0 6.0 10.0 1.0 0.422631457569E+00  0.126989303718E+01  -.388045010699E+01  0.294406639573E+02  -.948496029423E+02  0.117655177909E+03  0.824665233437E+01  -.203504553960E+03  0.334300208830E+03  -.359851202342E+03  0.252944402381E+03  -.810274983657E+02 0.107E+02
            21.0 6.0 10.0 0.0 0.972005456686E+00  0.107759308456E+01  -.377162011826E+03  0.733277839459E+03  0.746233688077E+03  -.120664949599E+04  -.152773103165E+04  0.690138853640E+03  0.223702211062E+04  0.141994070255E+03  -.256373976541E+04  0.112708269487E+04 0.107E+02
            21.0 6.0 11.0 2.0 0.21403371928574E+00 0.13200911132371E+01 0.94871030773674E+03 -.35172077004232E+04 0.26666540075983E+04 0.11601930250073E+05 -.44569197544414E+05 0.93083704665252E+05 -.15374805298351E+06 0.23313819180042E+06 -.34825249789009E+06 0.47018427348920E+06 0.634946938776E+01
            6.0 21.0 7.0
            6.0 21.0 4.0 1.0 0.448036655784E+00  0.125598810495E+01  -.322730857066E+01  0.267512910397E+02  -.994858152045E+02  0.187100448291E+03  -.211048953611E+03  0.157913936589E+03  -.852514586192E+02  0.700660954204E+02  -.653909384522E+02  0.226811894871E+02 0.107E+02
            6.0 21.0 4.0 0.0 0.101745647211E+01  0.107508506119E+01  -.361056000293E+03  0.767766083034E+03  0.562616199633E+03  -.114048251432E+04  -.131544804517E+04  0.663956698847E+03  0.197572745044E+04  0.944691219355E+02  -.219739997449E+04  0.950093958080E+03 0.107E+02
            6.0 21.0 5.0 1.0 0.143411836701E+00  0.156306291801E+01  -.207136899191E-01  0.160722166596E+00  -.769319462665E+00  0.333532457607E+01  -.465379578803E+00  0.257236417934E+01  -.941408289209E+01  0.711610524877E+01  -.467563403214E+01  0.437078564977E+01 0.107E+02
            6.0 21.0 5.0 0.0 0.856227725838E+00  0.111214707047E+01  -.180762215212E+02  0.765182860894E+02  -.513101757302E+02  -.166866598244E+03  0.112182749957E+03  0.262437194448E+03  -.133032180566E+03  -.326097408312E+03  0.340191728270E+03  -.960157592779E+02 0.107E+02
            6.0 21.0 6.0 1.0 0.704775005579E+00  0.115982820725E+01  -.104772385096E+03  0.579330890262E+03  -.931319665307E+03  -.110485898271E+03  0.170578167349E+04  -.109280735828E+04  -.155665341091E+04  0.289431058957E+04  -.178066346592E+04  0.397012186356E+03 0.107E+02
            6.0 21.0 6.0 0.0 0.595389515161E+00  0.116658474716E+01  -.126706131180E+02  0.161272838810E+03  -.541772633523E+03  0.332589876948E+03  0.976072665607E+03  -.114514290997E+04  -.965164285929E+03  0.235738080197E+04  -.149798939931E+04  0.335987175761E+03 0.107E+02
            6.0 21.0 7.0 1.0 0.382407649206E+00  0.125440526408E+01  -.975519323064E+00  0.567998742793E+01  -.113216542254E+02  0.780936076905E-01  0.181972697845E+02  -.115597891237E+02  -.129742233275E+02  0.375889759190E+02  -.368773995288E+02  0.123439875411E+02 0.107E+02
            6.0 21.0 7.0 0.0 0.624788552509E+00  0.114731298831E+01  0.700460419389E+01  -.361099851581E+02  0.429749926777E+02  0.532262560835E+02  -.647149950238E+02  -.992925817995E+02  0.738769228068E+02  0.126450921986E+03  -.143695079085E+03  0.404769777485E+02 0.107E+02
            6.0 21.0 8.0 1.0 0.428641811013E+00  0.128327762718E+01  -.946857078623E+00  0.800161162683E+01  -.281522107389E+02  0.231083530575E+02  0.332346065472E+02  -.960924327510E+02  0.133586344156E+03  -.927343034220E+02  0.867328674411E+01  0.116241968532E+02 0.107E+02
            6.0 21.0 8.0 0.0 0.754157453775E+00  0.110884593690E+01  0.599337308328E+02  -.251084843785E+03  0.206099961639E+03  0.375796061788E+03  -.335950341442E+03  -.568162553577E+03  0.369766739893E+03  0.631002067198E+03  -.644548501259E+03  0.157166805306E+03 0.107E+02
            6.0 21.0 9.0 1.0 0.732822364832E+00  0.117612198540E+01  -.732362426373E+02  0.422129374685E+03  -.662680271314E+03  -.103198621094E+03  0.120874911273E+04  -.781422563587E+03  -.108384098138E+04  0.222417185332E+04  -.157898572046E+04  0.428202952467E+03 0.107E+02
            6.0 21.0 9.0 0.0 0.939857333900E+00  0.106895294387E+01  0.124933232312E+04  -.255044250950E+04  -.173356387857E+04  0.361187292140E+04  0.390399523850E+04  -.221747283805E+04  -.583536509952E+04  0.526561186051E+02  0.636457558029E+04  -.284584459129E+04 0.107E+02
            6.0 21.0 10.0 1.0 0.422631457569E+00  0.126989303718E+01  -.388045010699E+01  0.294406639573E+02  -.948496029423E+02  0.117655177909E+03  0.824665233437E+01  -.203504553960E+03  0.334300208830E+03  -.359851202342E+03  0.252944402381E+03  -.810274983657E+02 0.107E+02
            6.0 21.0 10.0 0.0 0.972005456686E+00  0.107759308456E+01  -.377162011826E+03  0.733277839459E+03  0.746233688077E+03  -.120664949599E+04  -.152773103165E+04  0.690138853640E+03  0.223702211062E+04  0.141994070255E+03  -.256373976541E+04  0.112708269487E+04 0.107E+02
            6.0 21.0 11.0 2.0 0.21403371928574E+00 0.13200911132371E+01 0.94871030773674E+03 -.35172077004232E+04 0.26666540075983E+04 0.11601930250073E+05 -.44569197544414E+05 0.93083704665252E+05 -.15374805298351E+06 0.23313819180042E+06 -.34825249789009E+06 0.47018427348920E+06 0.634946938776E+01
            21.0 7.0 4.0
            21.0 7.0 6.0 1.0 0.807962089770E+00  0.110759534057E+01  -.340427905928E+03  0.127319077774E+04  -.705408224730E+03  -.208840779420E+04  0.152648293682E+04  0.289554934089E+04  -.229741828317E+04  -.327344597050E+04  0.460298750574E+04  -.159495101206E+04 0.107E+02
            21.0 7.0 6.0 0.0 0.890732198956E+00  0.108289652863E+01  0.524848787496E+03  -.120493089787E+04  -.657728459986E+03  0.180390847068E+04  0.184237417458E+04  -.133187709357E+04  -.308740889374E+04  0.398727726464E+03  0.328871355642E+04  -.157702738829E+04 0.107E+02
            21.0 7.0 7.0 1.0 0.360039825522E+00  0.128171146255E+01  -.578225063603E+00  0.337611133648E+01  -.649930958351E+01  -.275630424550E+01  0.135308132869E+02  -.413765995523E+01  -.984781606864E+01  0.250453916223E+02  -.292354740628E+02  0.113069705677E+02 0.107E+02
            21.0 7.0 7.0 0.0 0.907743544091E+00  0.110477696107E+01  -.213704329230E+02  0.305047832031E+02  0.867041687289E+02  -.578925975104E+02  -.154866318067E+03  -.148358731391E+02  0.188939979117E+03  0.103978765449E+03  -.248930926770E+03  0.878519674172E+02 0.107E+02
            21.0 7.0 9.0 1.0 0.826093345881E+00  0.111656186295E+01  -.134900446991E+03  0.512168018835E+03  -.290786607569E+03  -.818304030957E+03  0.620139050853E+03  0.110711500552E+04  -.955508455794E+03  -.125453505437E+04  0.193154902115E+04  -.718782800336E+03 0.107E+02
            21.0 7.0 9.0 0.0 0.992965013545E+00  0.107047047250E+01  0.718075363467E+03  -.156421798342E+04  -.884640333659E+03  0.224108466103E+04  0.222361434924E+04  -.150058192205E+04  -.351453742818E+04  0.195332325167E+03  0.384165904717E+04  -.175593316490E+04 0.107E+02
            21.0 7.0 10.0 1.0 0.438399150968E+00  0.127481782975E+01  -.406068786300E+01  0.313519748403E+02  -.102449041758E+03  0.122852219880E+03  0.228029252903E+02  -.233498907666E+03  0.368525387624E+03  -.399050660872E+03  0.287538216538E+03  -.949785071892E+02 0.107E+02
            21.0 7.0 10.0 0.0 0.997350782269E+00  0.108129507347E+01  -.287593391931E+03  0.582873337152E+03  0.528658831235E+03  -.924265598596E+03  -.113462281991E+04  0.529452250654E+03  0.168297271657E+04  0.112078338165E+03  -.194166666941E+04  0.852391330088E+03 0.107E+02
            21.0 7.0 11.0 2.0 0.46486134172665E+00 0.11346114287681E+01 0.31307490254149E+05 -.10354598040995E+06 0.38656428311695E+04 0.32056266625422E+06 0.39744840070465E+05 -.19458054849415E+07 0.41141457421328E+07 -.42477392966822E+07 0.23624574464874E+07 -.58156820624498E+06 0.595028571429E+01
            7.0 21.0 7.0
            7.0 21.0 4.0 1.0 0.490983382107E+00  0.125614329399E+01  -.299943629835E+01  0.270236905849E+02  -.111170674774E+03  0.229830913207E+03  -.300684435469E+03  0.292628653272E+03  -.233851278306E+03  0.195302537279E+03  -.138460901927E+03  0.427468572065E+02 0.107E+02
            7.0 21.0 4.0 0.0 0.105629376585E+01  0.107572907200E+01  -.254335690530E+03  0.490380246908E+03  0.544164443026E+03  -.799133167812E+03  -.111678479332E+04  0.374007803004E+03  0.157150984227E+04  0.250886798252E+03  -.179094612185E+04  0.730458539572E+03 0.107E+02
            7.0 21.0 5.0 1.0 0.105128558065E+00  0.166543799203E+01  -.490499567279E-01  0.262824473892E+00  -.842944457794E+00  0.260294349872E+01  0.204473727018E+01  0.442305496682E+00  -.926873747359E+01  0.840344479458E+01  -.909639997527E+01  0.226856360381E+02 0.107E+02
            7.0 21.0 5.0 0.0 0.908608525991E+00  0.110919744428E+01  -.173409103733E+02  0.729870485793E+02  -.494843903695E+02  -.154651301224E+03  0.103584119148E+03  0.239195788003E+03  -.119492515429E+03  -.294941056020E+03  0.308071769531E+03  -.879996799696E+02 0.107E+02
            7.0 21.0 6.0 1.0 0.807962089770E+00  0.110759534057E+01  -.340427905928E+03  0.127319077774E+04  -.705408224730E+03  -.208840779420E+04  0.152648293682E+04  0.289554934089E+04  -.229741828317E+04  -.327344597050E+04  0.460298750574E+04  -.159495101206E+04 0.107E+02
            7.0 21.0 6.0 0.0 0.890732198956E+00  0.108289652863E+01  0.524848787496E+03  -.120493089787E+04  -.657728459986E+03  0.180390847068E+04  0.184237417458E+04  -.133187709357E+04  -.308740889374E+04  0.398727726464E+03  0.328871355642E+04  -.157702738829E+04 0.107E+02
            7.0 21.0 7.0 1.0 0.360039825522E+00  0.128171146255E+01  -.578225063603E+00  0.337611133648E+01  -.649930958351E+01  -.275630424550E+01  0.135308132869E+02  -.413765995523E+01  -.984781606864E+01  0.250453916223E+02  -.292354740628E+02  0.113069705677E+02 0.107E+02
            7.0 21.0 7.0 0.0 0.907743544091E+00  0.110477696107E+01  -.213704329230E+02  0.305047832031E+02  0.867041687289E+02  -.578925975104E+02  -.154866318067E+03  -.148358731391E+02  0.188939979117E+03  0.103978765449E+03  -.248930926770E+03  0.878519674172E+02 0.107E+02
            7.0 21.0 8.0 1.0 0.174768643321E+00  0.148631429326E+01  0.237576821141E+00  -.158315704818E+01  0.604382091301E+01  -.190442945854E+02  0.249069157993E+02  -.188629328951E+02  0.363987152156E+02  -.510076994860E+02  0.293175512192E+02  -.743038209941E+01 0.107E+02
            7.0 21.0 8.0 0.0 0.738411228618E+00  0.112140184634E+01  0.257387951734E+02  -.106387036354E+03  0.738230558961E+02  0.198314126305E+03  -.126130587065E+03  -.313946478674E+03  0.123309896884E+03  0.366325690368E+03  -.300134592167E+03  0.591108669942E+02 0.107E+02
            7.0 21.0 9.0 1.0 0.849165290594E+00  0.109591794776E+01  -.498492818490E+03  0.165884824516E+04  -.675877511497E+03  -.250822539272E+04  0.138306976918E+04  0.315236517469E+04  -.207362647970E+04  -.334435905746E+04  0.443802169131E+04  -.153612572881E+04 0.107E+02
            7.0 21.0 9.0 0.0 0.895544379950E+00  0.108616326078E+01  0.345287794942E+03  -.631843092393E+03  -.787465962998E+03  0.107721104208E+04  0.155993915464E+04  -.536225380050E+03  -.223061188780E+04  -.280084737959E+03  0.258731159552E+04  -.110372923530E+04 0.107E+02
            7.0 21.0 10.0 1.0 0.438399150968E+00  0.127481782975E+01  -.406068786300E+01  0.313519748403E+02  -.102449041758E+03  0.122852219880E+03  0.228029252903E+02  -.233498907666E+03  0.368525387624E+03  -.399050660872E+03  0.287538216538E+03  -.949785071892E+02 0.107E+02
            7.0 21.0 10.0 0.0 0.997350782269E+00  0.108129507347E+01  -.287593391931E+03  0.582873337152E+03  0.528658831235E+03  -.924265598596E+03  -.113462281991E+04  0.529452250654E+03  0.168297271657E+04  0.112078338165E+03  -.194166666941E+04  0.852391330088E+03 0.107E+02
            7.0 21.0 11.0 2.0 0.46486134172665E+00 0.11346114287681E+01 0.31307490254149E+05 -.10354598040995E+06 0.38656428311695E+04 0.32056266625422E+06 0.39744840070465E+05 -.19458054849415E+07 0.41141457421328E+07 -.42477392966822E+07 0.23624574464874E+07 -.58156820624498E+06 0.595028571429E+01
            21.0 8.0 4.0
            21.0 8.0 6.0 1.0 0.758522659459E+00  0.112845632621E+01  -.124661631588E+03  0.484378774692E+03  -.259583210566E+03  -.852717966298E+03  0.606710215407E+03  0.121801839959E+04  -.100305959367E+04  -.142433815647E+04  0.216770629535E+04  -.815075294423E+03 0.107E+02
            21.0 8.0 6.0 0.0 0.888138741513E+00  0.108551054793E+01  0.389601610105E+03  -.893339526208E+03  -.530863042720E+03  0.136152756913E+04  0.147088353136E+04  -.977058433136E+03  -.245554559274E+04  0.225985152926E+03  0.266481127672E+04  -.125632919000E+04 0.107E+02
            21.0 8.0 7.0 1.0 0.318879881351E+00  0.131839928712E+01  -.355285007644E+00  0.206796581488E+01  -.405373373203E+01  -.235551015088E+01  0.825917228919E+01  0.297800272356E-01  -.488403427943E+01  0.122099391487E+02  -.201316524952E+02  0.945627954908E+01 0.107E+02
            21.0 8.0 7.0 0.0 0.896495125301E+00  0.110742353064E+01  -.157380634696E+02  0.201189650934E+02  0.710740531029E+02  -.389696068675E+02  -.124169770106E+03  -.229557645612E+02  0.146901587846E+03  0.941440840960E+02  -.196689828822E+03  0.663248717192E+02 0.107E+02
            21.0 8.0 9.0 1.0 0.744962245230E+00  0.119592434338E+01  -.317298155095E+02  0.220272940889E+03  -.485029902151E+03  0.351093905474E+03  0.236088315996E+03  -.627773047626E+03  0.369637993795E+03  0.170239386020E+03  -.301071151537E+03  0.972514430199E+02 0.107E+02
            21.0 8.0 9.0 0.0 0.946133166530E+00  0.108096442068E+01  0.322966394786E+03  -.710818498760E+03  -.436621416250E+03  0.104984710091E+04  0.110040961355E+04  -.693810900843E+03  -.173852095138E+04  0.710376813166E+02  0.188871612875E+04  -.853277578317E+03 0.107E+02
            21.0 8.0 10.0 1.0 0.453382924199E+00  0.129693987165E+01  -.385743931810E+01  0.350487615596E+02  -.148589311080E+03  0.296346681032E+03  -.331891608348E+03  0.262011075897E+03  -.160932835761E+03  0.242638579044E+02  0.745018730120E+02  -.490081870811E+02 0.107E+02
            21.0 8.0 10.0 0.0 0.102792471647E+01  0.107846896567E+01  -.300978276529E+03  0.601322684802E+03  0.567724689232E+03  -.961151296247E+03  -.118641749400E+04  0.535548949701E+03  0.173025308644E+04  0.137231977645E+03  -.197854314170E+04  0.855128529916E+03 0.107E+02
            21.0 8.0 11.0 2.0 0.14836170376725E+00 0.14136964738031E+01 0.50081003746410E+03 -.13508030340167E+04 -.20018669358671E+03 0.70099376897333E+04 -.19192720485515E+05 0.37289403734301E+05 -.70893211766413E+05 0.16759328699284E+06 -.61214235306525E+06 0.39403071100858E+07 0.559102040816E+01
            8.0 21.0 7.0
            8.0 21.0 4.0 1.0 0.285155966878E+00  0.143746403770E+01  -.283988515735E+00  0.255785576986E+01  -.126569575289E+02  0.208064359813E+02  -.220078672859E+02  0.279642356838E+02  -.501651418382E+01  -.298971826675E+02  0.285890570175E+02  -.130187196145E+02 0.107E+02
            8.0 21.0 4.0 0.0 0.106935352106E+01  0.107061999466E+01  -.284303774198E+03  0.518101211764E+03  0.616697080698E+03  -.823288061305E+03  -.120091465817E+04  0.342522242299E+03  0.162077723157E+04  0.299146926852E+03  -.180485649499E+04  0.716335057205E+03 0.107E+02
            8.0 21.0 5.0 1.0 0.103573332002E+00  0.168781384927E+01  -.411208067708E-01  0.222857968403E+00  -.747027604948E+00  0.262728129218E+01  0.240966758158E+01  0.763000827916E+00  -.108056903199E+02  0.100909038043E+02  -.128751173055E+02  0.468594115417E+02 0.107E+02
            8.0 21.0 5.0 0.0 0.840701848269E+00  0.112324120411E+01  -.887351232413E+01  0.372921793955E+02  -.237405836223E+02  -.868753215659E+02  0.513769848832E+02  0.136724455048E+03  -.619077612926E+02  -.169260635824E+03  0.178642738246E+03  -.534594412359E+02 0.107E+02
            8.0 21.0 6.0 1.0 0.758522659459E+00  0.112845632621E+01  -.124661631588E+03  0.484378774692E+03  -.259583210566E+03  -.852717966298E+03  0.606710215407E+03  0.121801839959E+04  -.100305959367E+04  -.142433815647E+04  0.216770629535E+04  -.815075294423E+03 0.107E+02
            8.0 21.0 6.0 0.0 0.888138741513E+00  0.108551054793E+01  0.389601610105E+03  -.893339526208E+03  -.530863042720E+03  0.136152756913E+04  0.147088353136E+04  -.977058433136E+03  -.245554559274E+04  0.225985152926E+03  0.266481127672E+04  -.125632919000E+04 0.107E+02
            8.0 21.0 7.0 1.0 0.318879881351E+00  0.131839928712E+01  -.355285007644E+00  0.206796581488E+01  -.405373373203E+01  -.235551015088E+01  0.825917228919E+01  0.297800272356E-01  -.488403427943E+01  0.122099391487E+02  -.201316524952E+02  0.945627954908E+01 0.107E+02
            8.0 21.0 7.0 0.0 0.896495125301E+00  0.110742353064E+01  -.157380634696E+02  0.201189650934E+02  0.710740531029E+02  -.389696068675E+02  -.124169770106E+03  -.229557645612E+02  0.146901587846E+03  0.941440840960E+02  -.196689828822E+03  0.663248717192E+02 0.107E+02
            8.0 21.0 8.0 1.0 0.296972826160E+00  0.134236277904E+01  0.471020651465E+00  -.369738704371E+01  0.154138230419E+02  -.444525922572E+02  0.527506429694E+02  -.222964537842E+02  -.138233138624E+02  0.693388362278E+02  -.882944796469E+02  0.353919224060E+02 0.107E+02
            8.0 21.0 8.0 0.0 0.765848785639E+00  0.110857334405E+01  0.296337127220E+02  -.110876043954E+03  0.544487999643E+02  0.195971560260E+03  -.589956362563E+02  -.277259264170E+03  0.645274765647E+01  0.276254344205E+03  -.100908341284E+03  -.146442199371E+02 0.107E+02
            8.0 21.0 9.0 1.0 0.828720201130E+00  0.110983596365E+01  -.275853071668E+03  0.902386670543E+03  -.237970241468E+03  -.156531364435E+04  0.666149902054E+03  0.201073379780E+04  -.114901721913E+04  -.224317032044E+04  0.293592798038E+04  -.104921680443E+04 0.107E+02
            8.0 21.0 9.0 0.0 0.889644116163E+00  0.109023583350E+01  0.228105720119E+03  -.374621892708E+03  -.666645076390E+03  0.736821377577E+03  0.122587661275E+04  -.305521084167E+03  -.168944319922E+04  -.318590783248E+03  0.198186350457E+04  -.817937197160E+03 0.107E+02
            8.0 21.0 10.0 1.0 0.453382924199E+00  0.129693987165E+01  -.385743931810E+01  0.350487615596E+02  -.148589311080E+03  0.296346681032E+03  -.331891608348E+03  0.262011075897E+03  -.160932835761E+03  0.242638579044E+02  0.745018730120E+02  -.490081870811E+02 0.107E+02
            8.0 21.0 10.0 0.0 0.102792471647E+01  0.107846896567E+01  -.300978276529E+03  0.601322684802E+03  0.567724689232E+03  -.961151296247E+03  -.118641749400E+04  0.535548949701E+03  0.173025308644E+04  0.137231977645E+03  -.197854314170E+04  0.855128529916E+03 0.107E+02
            8.0 21.0 11.0 2.0 0.14836170376725E+00 0.14136964738031E+01 0.50081003746410E+03 -.13508030340167E+04 -.20018669358671E+03 0.70099376897333E+04 -.19192720485515E+05 0.37289403734301E+05 -.70893211766413E+05 0.16759328699284E+06 -.61214235306525E+06 0.39403071100858E+07 0.559102040816E+01
            22.0 22.0 10.0
            22.0 22.0 16.0 -0.16231637, -0.05443858, -0.1625926, -0.02764703, 0.35522, 0.144317, 0.200197, 2.00000   0.00000   2.00000 -0.01400  -0.01100  -0.00400  -0.01400  -0.00200  -0.01400
            22.0 22.0 1.0 1.0 0.904690288007E-01  0.165421465723E+01  -.980146397983E-01  0.363520431430E+00  -.463960880799E+00  -.906789881597E+00  -.198147964954E+01  0.743965524741E+01  0.355133147901E+00  -.380343430767E+02  0.622749566859E+02  -.764134836701E+02 0.107E+02
            22.0 22.0 1.0 0.0 0.949666578836E+00  0.111226551965E+01  -.167199438837E+03  0.625608473021E+03  -.267634446725E+03  -.112435375356E+04  0.561611524335E+03  0.156677661743E+04  -.729344236139E+03  -.187109703831E+04  0.199058947411E+04  -.584515828708E+03 0.107E+02
            22.0 22.0 2.0 1.0 0.147545130476E+00  0.160927587949E+01  0.319776694238E-01  -.155825504635E+00  0.189730664518E+00  0.361197275188E+01  0.306027438264E+01  -.132950442926E+02  -.164231053690E+02  0.384904347531E+02  -.431322326262E+02  0.729203142842E+02 0.107E+02
            22.0 22.0 2.0 0.0 0.788691474697E+00  0.111097079538E+01  -.406458747697E+02  0.161212644582E+03  -.105789078646E+03  -.281353721282E+03  0.201362406685E+03  0.419866824360E+03  -.253168395173E+03  -.483209220345E+03  0.551816630017E+03  -.169297639391E+03 0.107E+02
            22.0 22.0 3.0 1.0 0.140683803840E+00  0.165106983703E+01  0.227160307737E-02  -.207254234672E-01  0.136956448267E+00  -.112860103779E+01  -.465200203340E+01  -.317624081655E+01  0.714485180737E+01  -.310080360654E+01  0.162150845089E+01  -.185749575134E+01 0.107E+02
            22.0 22.0 3.0 0.0 0.356932177543E+00  0.129788968735E+01  -.670408313495E-01  0.537862764594E+00  -.182065900301E+01  0.245468375106E+01  0.408632401779E+01  -.370277062312E+01  -.340777488623E+01  0.628400122689E+01  -.518776435267E+01  0.191025797041E+01 0.107E+02
            22.0 22.0 4.0 1.0 0.205476827921E+00  0.141317195626E+01  -.168090551958E+01  0.105951436742E+02  -.323030420890E+02  0.550845979216E+02  -.575779550854E+02  0.688834335286E+02  -.956617368637E+02  0.424759398067E+02  0.536753151222E+02  -.504393358301E+02 0.107E+02
            22.0 22.0 4.0 0.0 0.847945660353E+00  0.112324261375E+01  -.236986855777E+03  0.948667659371E+03  -.396876093729E+03  -.203791863909E+04  0.104581188529E+04  0.313969092604E+04  -.151204939678E+04  -.394548062679E+04  0.419796527607E+04  -.120376458218E+04 0.107E+02
            22.0 22.0 5.0 1.0 0.257405862212E+00  0.142954203265E+01  0.238300537056E+00  -.188058618361E+01  0.741265422308E+01  -.995968072931E+01  0.273319002112E+01  -.143394115922E+02  0.314009716023E+02  -.665067037983E+01  -.185360160667E+02  0.107745604464E+02 0.107E+02
            22.0 22.0 5.0 0.0 0.103487426043E+01  0.108070450095E+01  0.158101644874E+03  -.308287126567E+03  -.396511552144E+03  0.555138191210E+03  0.828607850324E+03  -.266418380296E+03  -.120729519661E+04  -.182376974819E+03  0.139998666931E+04  -.581054645698E+03 0.107E+02
            22.0 22.0 6.0 1.0 0.622375100851E+00  0.120303784560E+01  -.130065699821E+03  0.103829440684E+04  -.320864107331E+04  0.460729691714E+04  -.149149537206E+04  -.600235065024E+04  0.122017530263E+05  -.119626346520E+05  0.652955787662E+04  -.159243702764E+04 0.107E+02
            22.0 22.0 6.0 0.0 0.785309940577E+00  0.110663225505E+01  0.159580823864E+04  -.556974374990E+04  0.183328210360E+04  0.110122953497E+05  -.536909253134E+04  -.155877746483E+05  0.808735278939E+04  0.178816880161E+05  -.195531581113E+05  0.567212691917E+04 0.107E+02
            22.0 22.0 7.0 1.0 0.797358542355E+00  0.114886862692E+01  0.601583508341E+02  -.361021303504E+03  0.658455776670E+03  -.734549334873E+02  -.112640519234E+04  0.101408159787E+04  0.882885077096E+03  -.233392578210E+04  0.179053848066E+04  -.515298125813E+03 0.107E+02
            22.0 22.0 7.0 0.0 0.963208585977E+00  0.106850986881E+01  -.703452996882E+03  0.147975999950E+04  0.871907509839E+03  -.204279337691E+04  -.207493308768E+04  0.132474056718E+04  0.318164427862E+04  -.170012850762E+03  -.346044787908E+04  0.159488267955E+04 0.107E+02
            22.0 22.0 8.0 1.0 0.616155535003E+00  0.125335996286E+01  0.122702148682E+02  -.108961583801E+03  0.358031401616E+03  -.654023125864E+03  0.846580558779E+03  -.812709375302E+03  0.508382304886E+03  -.251741541165E+03  0.192606987845E+03  -.956187394397E+02 0.107E+02
            22.0 22.0 8.0 0.0 0.856274098158E+00  0.111710183168E+01  -.182206240163E+03  0.661968776640E+03  -.222679924061E+03  -.125451806518E+04  0.458981595328E+03  0.175795422523E+04  -.516836148065E+03  -.209129895813E+04  0.183531564284E+04  -.446747326426E+03 0.107E+02
            22.0 22.0 9.0 1.0 0.642716497182E+00  0.120730311288E+01  -.715001504434E+02  0.572271687387E+03  -.171141713490E+04  0.234714670858E+04  -.691482858686E+03  -.301142486690E+04  0.612792920753E+04  -.623400146630E+04  0.360008428627E+04  -.936592228156E+03 0.107E+02
            22.0 22.0 9.0 0.0 0.550853282221E+00  0.115286638518E+01  -.273627591909E+03  0.156984985715E+04  -.305957550716E+04  0.836468761594E+03  0.456898431193E+04  -.421589433101E+04  -.378597517919E+04  0.852632299604E+04  -.538630227474E+04  0.122040770693E+04 0.107E+02
            22.0 22.0 10.0 1.0 0.391943171559E+00  0.128408554550E+01  -.688475289124E+01  0.625268616971E+02  -.272915024394E+03  0.687824085695E+03  -.114281526947E+04  0.142478143349E+04  -.148561029066E+04  0.127955734546E+04  -.771177455410E+03  0.230557826031E+03 0.107E+02
            22.0 22.0 10.0 0.0 0.906735688447E+00  0.110166099405E+01  -.756271600967E+03  0.281209813072E+04  -.142304256291E+04  -.470192277031E+04  0.294348136591E+04  0.636747556228E+04  -.382311661181E+04  -.714605775365E+04  0.808736442430E+04  -.235968754281E+04 0.107E+02
            22.0 22.0 11.0 2.0 0.62958876740800E+00 0.12244597171750E+01 0.15194938404269E+05 -.17029034817153E+05 -.96123063861439E+05 -.22033475091251E+06 0.75319591957192E+06 0.25395506762909E+08 -.27647552884895E+09 0.17536355054576E+10 -.85132001329774E+10 0.29513681616955E+11 0.451322448980E+01
            22.0 1.0 1.0
            22.0 1.0 10.0 1.0 0.902094393986E+00  0.106888374849E+01  0.173771813439E+03  -.320066361849E+03  -.264748034287E+03  0.416103322107E+03  0.528215691222E+03  -.200783438486E+03  -.715647621105E+03  -.502872000220E+02  0.770473733906E+03  -.337440515525E+03 0.107E+02
            22.0 1.0 10.0 0.0 0.685559540987E+00  0.112286086775E+01  0.706051446241E+02  -.282074600512E+03  0.217668136161E+03  0.400423620267E+03  -.352971580176E+03  -.590530563474E+03  0.425998709346E+03  0.653421621838E+03  -.756672940727E+03  0.214396376489E+03 0.107E+02
            22.0 1.0 11.0 2.0 0.62958876740800E+00 0.12244597171750E+01 0.15194938404269E+05 -.17029034817153E+05 -.96123063861439E+05 -.22033475091251E+06 0.75319591957192E+06 0.25395506762909E+08 -.27647552884895E+09 0.17536355054576E+10 -.85132001329774E+10 0.29513681616955E+11 0.451322448980E+01
            1.0 22.0 3.0
            1.0 22.0 8.0 1.0 0.578889646955E+00  0.121391052007E+01  -.398925656630E+01  0.300935008943E+02  -.899417206410E+02  0.949137168447E+02  0.517030204189E+02  -.261253445116E+03  0.344603345509E+03  -.255218517659E+03  0.115051665212E+03  -.261375731910E+02 0.107E+02
            1.0 22.0 8.0 0.0 0.786576351083E+00  0.111618536654E+01  0.461778982250E+02  -.184427236494E+03  0.125575563335E+03  0.318075552542E+03  -.241012274982E+03  -.480643464062E+03  0.299490884374E+03  0.566649322349E+03  -.627885144308E+03  0.178079937689E+03 0.107E+02
            1.0 22.0 9.0 1.0 0.930609077215E+00  0.110310990912E+01  -.289381048214E+03  0.106950817452E+04  -.537144131077E+03  -.176380733969E+04  0.110279536041E+04  0.237435662209E+04  -.145969070226E+04  -.268532834367E+04  0.313130394761E+04  -.942747077868E+03 0.107E+02
            1.0 22.0 9.0 0.0 0.687230139971E+00  0.112515497608E+01  -.736295788614E+02  0.335160053449E+03  -.329224387369E+03  -.477558502312E+03  0.559272300679E+03  0.795714383533E+03  -.731681886682E+03  -.940044156955E+03  0.124252943269E+04  -.380745099163E+03 0.107E+02
            1.0 22.0 10.0 1.0 0.902094393986E+00  0.106888374849E+01  0.173771813439E+03  -.320066361849E+03  -.264748034287E+03  0.416103322107E+03  0.528215691222E+03  -.200783438486E+03  -.715647621105E+03  -.502872000220E+02  0.770473733906E+03  -.337440515525E+03 0.107E+02
            1.0 22.0 10.0 0.0 0.685559540987E+00  0.112286086775E+01  0.706051446241E+02  -.282074600512E+03  0.217668136161E+03  0.400423620267E+03  -.352971580176E+03  -.590530563474E+03  0.425998709346E+03  0.653421621838E+03  -.756672940727E+03  0.214396376489E+03 0.107E+02
            1.0 22.0 11.0 2.0 0.62958876740800E+00 0.12244597171750E+01 0.15194938404269E+05 -.17029034817153E+05 -.96123063861439E+05 -.22033475091251E+06 0.75319591957192E+06 0.25395506762909E+08 -.27647552884895E+09 0.17536355054576E+10 -.85132001329774E+10 0.29513681616955E+11 0.451322448980E+01
            22.0 6.0 4.0
            22.0 6.0 6.0 1.0 0.850508242862E+00  0.110009482539E+01  -.522250170754E+03  0.194972574033E+04  -.120697330259E+04  -.287757189466E+04  0.231794980916E+04  0.386816580372E+04  -.324295332271E+04  -.420882879372E+04  0.592754213849E+04  -.200622910051E+04 0.107E+02
            22.0 6.0 6.0 0.0 0.947362869979E+00  0.108047864308E+01  0.788359939951E+03  -.175266942159E+04  -.106431060348E+04  0.264917497547E+04  0.277608978914E+04  -.186518185098E+04  -.456558925353E+04  0.326189781690E+03  0.512697263507E+04  -.241962322189E+04 0.107E+02
            22.0 6.0 7.0 1.0 0.520465704941E+00  0.120813042381E+01  -.211764860702E+01  0.132295399396E+02  -.274400815756E+02  -.448396701836E+00  0.567078541326E+02  -.445852906816E+02  -.454971921664E+02  0.121428902077E+03  -.100700665273E+03  0.296136225330E+02 0.107E+02
            22.0 6.0 7.0 0.0 0.772085040808E+00  0.112779441018E+01  0.110226702718E+02  -.558071836156E+02  0.519948818617E+02  0.127880540430E+03  -.115094913178E+03  -.231850935531E+03  0.153523084293E+03  0.308161926021E+03  -.351802660845E+03  0.102295050070E+03 0.107E+02
            22.0 6.0 9.0 1.0 0.883201867085E+00  0.110385025248E+01  -.260376443100E+03  0.961349403587E+03  -.534140104266E+03  -.150959077292E+04  0.111532246020E+04  0.201845504329E+04  -.162694485906E+04  -.224369770138E+04  0.318505444644E+04  -.110681587935E+04 0.107E+02
            22.0 6.0 9.0 0.0 0.102652913462E+01  0.106931172756E+01  0.100572586168E+04  -.213767050274E+04  -.129173584316E+04  0.305912427149E+04  0.311249380030E+04  -.199763779083E+04  -.484360308327E+04  0.184490826571E+03  0.533614320762E+04  -.242761192731E+04 0.107E+02
            22.0 6.0 10.0 1.0 0.473228946328E+00  0.125887343443E+01  -.499181307295E+01  0.386481217800E+02  -.126158847097E+03  0.164291467968E+03  -.910206011835E+01  -.248950749980E+03  0.428775688265E+03  -.463704666518E+03  0.321755109883E+03  -.101012141752E+03 0.107E+02
            22.0 6.0 10.0 0.0 0.686444252540E+00  0.112314890857E+01  0.896893440331E+02  -.362613396550E+03  0.274244596698E+03  0.577364188308E+03  -.524893776523E+03  -.892551083893E+03  0.720060413554E+03  0.104783530391E+04  -.134364451247E+04  0.414992092385E+03 0.107E+02
            22.0 6.0 11.0 2.0 0.17260048764886E+00 0.15132846767694E+01 -.22259929645230E+04 0.11229373364625E+05 -.29558750705020E+05 0.61016072100298E+05 -.13336311370924E+06 0.43175130449546E+06 -.31901382901410E+07 0.96596876603206E+08 -.26173502753745E+11 0.16745847655039E+15 0.549167020408E+01
            6.0 22.0 7.0
            6.0 22.0 4.0 1.0 0.443964978151E+00  0.126068861707E+01  -.218886660218E+01  0.159949629509E+02  -.472080710957E+02  0.453212986787E+02  0.305984189493E+02  -.125332687120E+03  0.151140366850E+03  -.657474034224E+02  -.156171476237E+02  0.129940111438E+02 0.107E+02
            6.0 22.0 4.0 0.0 0.106156081069E+01  0.107831239094E+01  -.298116458811E+03  0.571782348565E+03  0.619358493037E+03  -.940513850478E+03  -.127755668276E+04  0.482372114287E+03  0.184492474932E+04  0.225824184387E+03  -.212597725076E+04  0.898188091381E+03 0.107E+02
            6.0 22.0 5.0 1.0 0.122904874400E+00  0.161266435283E+01  -.542076700909E-01  0.309945253698E+00  -.103065457565E+01  0.295991803076E+01  0.914304477196E+00  0.144322477942E+01  -.918175970359E+01  0.779278106640E+01  -.692783958743E+01  0.103844614014E+02 0.107E+02
            6.0 22.0 5.0 0.0 0.817580034730E+00  0.113000375032E+01  -.103467377155E+02  0.430151815213E+02  -.260516718075E+02  -.971945234901E+02  0.524583066119E+02  0.155176171968E+03  -.562419688132E+02  -.201974493711E+03  0.194815634361E+03  -.537273024751E+02 0.107E+02
            6.0 22.0 6.0 1.0 0.850508242862E+00  0.110009482539E+01  -.522250170754E+03  0.194972574033E+04  -.120697330259E+04  -.287757189466E+04  0.231794980916E+04  0.386816580372E+04  -.324295332271E+04  -.420882879372E+04  0.592754213849E+04  -.200622910051E+04 0.107E+02
            6.0 22.0 6.0 0.0 0.947362869979E+00  0.108047864308E+01  0.788359939951E+03  -.175266942159E+04  -.106431060348E+04  0.264917497547E+04  0.277608978914E+04  -.186518185098E+04  -.456558925353E+04  0.326189781690E+03  0.512697263507E+04  -.241962322189E+04 0.107E+02
            6.0 22.0 7.0 1.0 0.520465704941E+00  0.120813042381E+01  -.211764860702E+01  0.132295399396E+02  -.274400815756E+02  -.448396701836E+00  0.567078541326E+02  -.445852906816E+02  -.454971921664E+02  0.121428902077E+03  -.100700665273E+03  0.296136225330E+02 0.107E+02
            6.0 22.0 7.0 0.0 0.772085040808E+00  0.112779441018E+01  0.110226702718E+02  -.558071836156E+02  0.519948818617E+02  0.127880540430E+03  -.115094913178E+03  -.231850935531E+03  0.153523084293E+03  0.308161926021E+03  -.351802660845E+03  0.102295050070E+03 0.107E+02
            6.0 22.0 8.0 1.0 0.470815035783E+00  0.127523583174E+01  -.128639235095E+01  0.101974024210E+02  -.328645557080E+02  0.231577228540E+02  0.482647989862E+02  -.125235638961E+03  0.167870081624E+03  -.114993665406E+03  0.112425856291E+02  0.139520680287E+02 0.107E+02
            6.0 22.0 8.0 0.0 0.114207703013E+01  0.107351820979E+01  -.287609117763E+03  0.598448800193E+03  0.432444131334E+03  -.830943488875E+03  -.979624547613E+03  0.435081980618E+03  0.140497595404E+04  0.758939393363E+02  -.144881337546E+04  0.600269956541E+03 0.107E+02
            6.0 22.0 9.0 1.0 0.806741923094E+00  0.117246031390E+01  -.790916919830E+02  0.461251070670E+03  -.722155382508E+03  -.146069759768E+03  0.138225158072E+04  -.849309833001E+03  -.132376965341E+04  0.264013917252E+04  -.187526646717E+04  0.512084265807E+03 0.107E+02
            6.0 22.0 9.0 0.0 0.731877483406E+00  0.110695262770E+01  -.271313971282E+03  0.117901163489E+04  -.113845020092E+04  -.145032330465E+04  0.185834530598E+04  0.222652421711E+04  -.240102010092E+04  -.249275309049E+04  0.366472422989E+04  -.117502756768E+04 0.107E+02
            6.0 22.0 10.0 1.0 0.473228946328E+00  0.125887343443E+01  -.499181307295E+01  0.386481217800E+02  -.126158847097E+03  0.164291467968E+03  -.910206011835E+01  -.248950749980E+03  0.428775688265E+03  -.463704666518E+03  0.321755109883E+03  -.101012141752E+03 0.107E+02
            6.0 22.0 10.0 0.0 0.686444252540E+00  0.112314890857E+01  0.896893440331E+02  -.362613396550E+03  0.274244596698E+03  0.577364188308E+03  -.524893776523E+03  -.892551083893E+03  0.720060413554E+03  0.104783530391E+04  -.134364451247E+04  0.414992092385E+03 0.107E+02
            6.0 22.0 11.0 2.0 0.17260048764886E+00 0.15132846767694E+01 -.22259929645230E+04 0.11229373364625E+05 -.29558750705020E+05 0.61016072100298E+05 -.13336311370924E+06 0.43175130449546E+06 -.31901382901410E+07 0.96596876603206E+08 -.26173502753745E+11 0.16745847655039E+15 0.549167020408E+01
            22.0 7.0 4.0
            22.0 7.0 6.0 1.0 0.874492494572E+00  0.110811747325E+01  -.344523097951E+03  0.129548619173E+04  -.740139721707E+03  -.206351784535E+04  0.154294920810E+04  0.281296679716E+04  -.226350212793E+04  -.319740294729E+04  0.455432771161E+04  -.159889145157E+04 0.107E+02
            22.0 7.0 6.0 0.0 0.106522125006E+01  0.106890665199E+01  0.153552163457E+04  -.344613316486E+04  -.183995778704E+04  0.507283147990E+04  0.494006224514E+04  -.365457331172E+04  -.821404908228E+04  0.802003023620E+03  0.917132637474E+04  -.436776501299E+04 0.107E+02
            22.0 7.0 7.0 1.0 0.488231607632E+00  0.123558467886E+01  -.100019298805E+01  0.633593811052E+01  -.126167372669E+02  -.703798603917E+01  0.357258302049E+02  -.177511937369E+02  -.322315935964E+02  0.755480818502E+02  -.699658485870E+02  0.231933994992E+02 0.107E+02
            22.0 7.0 7.0 0.0 0.885452717402E+00  0.111540902227E+01  0.109859178662E+02  -.643497908497E+02  0.714496220839E+02  0.155769324543E+03  -.170970312183E+03  -.291505073499E+03  0.235678159273E+03  0.391816080238E+03  -.484498341540E+03  0.145826349705E+03 0.107E+02
            22.0 7.0 9.0 1.0 0.964694946900E+00  0.109896825075E+01  -.394035682054E+03  0.148839235841E+04  -.928787301627E+03  -.221536033523E+04  0.183228111605E+04  0.295422085678E+04  -.259498968996E+04  -.329464729874E+04  0.485931488657E+04  -.170846831854E+04 0.107E+02
            22.0 7.0 9.0 0.0 0.100711399320E+01  0.108254756894E+01  0.364537146298E+03  -.762165832313E+03  -.612326885777E+03  0.120372136353E+04  0.141505229967E+04  -.747253015038E+03  -.220449971604E+04  -.742372727385E+02  0.256451517340E+04  -.114763111278E+04 0.107E+02
            22.0 7.0 10.0 1.0 0.503439813852E+00  0.127484650300E+01  -.565464547585E+01  0.500167554590E+02  -.200240437545E+03  0.390743906394E+03  -.431876645957E+03  0.320344212069E+03  -.162181447662E+03  -.164207210993E+02  0.116295255393E+03  -.624290518343E+02 0.107E+02
            22.0 7.0 10.0 0.0 0.692956680996E+00  0.113255947828E+01  0.548593329998E+02  -.233724169716E+03  0.205933718821E+03  0.345617838167E+03  -.369225634252E+03  -.550140606089E+03  0.492636608309E+03  0.656110619412E+03  -.877370450178E+03  0.275612113556E+03 0.107E+02
            22.0 7.0 11.0 2.0 0.19363684778949E+00 0.13361797246409E+01 0.63200740003774E+03 -.23282568485685E+04 0.19868468672618E+04 0.62539873570548E+04 -.25433308172083E+05 0.54610503279189E+05 -.94528215900451E+05 0.15490510856023E+06 -.25974883348640E+06 0.41609919964743E+06 0.630955102041E+01
            7.0 22.0 7.0
            7.0 22.0 4.0 1.0 0.520600373177E+00  0.125993543863E+01  -.298687352161E+01  0.269962176022E+02  -.109222385198E+03  0.214725421990E+03  -.257537777019E+03  0.216365367458E+03  -.132933972021E+03  0.106056889353E+03  -.956513342430E+02  0.346338681972E+02 0.107E+02
            7.0 22.0 4.0 0.0 0.795234590770E+00  0.111239188635E+01  0.883289141627E+02  -.365750212814E+03  0.298134575189E+03  0.545285309589E+03  -.525792915457E+03  -.832404621153E+03  0.646161420928E+03  0.959942246820E+03  -.113629387881E+04  0.322543978452E+03 0.107E+02
            7.0 22.0 5.0 1.0 0.123507288489E+00  0.163544711955E+01  -.518534991879E-01  0.295821997970E+00  -.999317561553E+00  0.304460473601E+01  0.238482852472E+01  0.434893024141E+00  -.105919206890E+02  0.923136014657E+01  -.877231024056E+01  0.178614457935E+02 0.107E+02
[...]
                 (A) (A) (A) (A) (A) (A) (A) (A) (A) (A) (A) (A)
                 (A) (A) (A) (A) (A) (A) (A) (A) (A) (A) (A) (A)
                 (A) (A) (A) (A) (A) (A) (A) (A) (A) (A) (A) (A)
                 (A) (A) (A) (A) (A) (A) (A) (A) (A) (A) (A) (A)
                 (A) (A) (A) (A) (A) (A) (A) (A) (A) (A) (A) (A)
                 (A) (A) (A) (A) (A) (A) (A) (A) (A) (A) (A) (A)
                 (A) (A) (A) (A) (A) (A) (A) (A) (A) (A) (A) (A)
                 (A) (A) (A) (A) (A) (A) (A) (A) (A) (A) (A) (A)
                 (A) (A) (A) (A) (A) (A) (A) (A) (A) (A) (A) (A)
                 (A) (A) (A) (A) (A) (A) (A) (A) (A) (A) (A) (A)
                 (A) (A) (A) (A) (A) (A) (A) (A) (A) (A) (A) (A)
                 (A) (A) (A) (A) (A) (A) (A) (A) (A) (A) (A) (A)
                 (A) (A) (A) (A) (A) (A) (A) (A) (A) (A) (A) (A)
                 (A) (A) (A) (A) (A) (A) (A) (A) (A) (A) (A) (A)
                 (A) (A) (A) (A) (A) (A) (A) (A) (A) (A) (A) (A)
                 (A) (A) (A) (A) (A) (A) (A) (A) (A) (A) (A) (A)
                 (A) (A) (A)
 The electronic state is 1-A.
 Alpha  occ. eigenvalues --   -0.89744  -0.83713  -0.83524  -0.83300  -0.83146
 Alpha  occ. eigenvalues --   -0.80174  -0.80045  -0.79019  -0.78197  -0.78070
 Alpha  occ. eigenvalues --   -0.77652  -0.77583  -0.77552  -0.77504  -0.77110
 Alpha  occ. eigenvalues --   -0.74616  -0.74517  -0.74466  -0.74453  -0.74206
 Alpha  occ. eigenvalues --   -0.74091  -0.73706  -0.73284  -0.73166  -0.72358
 Alpha  occ. eigenvalues --   -0.72322  -0.72247  -0.72207  -0.71255  -0.71142
 Alpha  occ. eigenvalues --   -0.71116  -0.70935  -0.70773  -0.70527  -0.70420
 Alpha  occ. eigenvalues --   -0.70279  -0.70186  -0.69337  -0.69277  -0.69174
 Alpha  occ. eigenvalues --   -0.68307  -0.65108  -0.65007  -0.64943  -0.64895
 Alpha  occ. eigenvalues --   -0.64882  -0.64807  -0.64777  -0.64775  -0.64552
 Alpha  occ. eigenvalues --   -0.64472  -0.64436  -0.64365  -0.64224  -0.64081
 Alpha  occ. eigenvalues --   -0.64075  -0.63995  -0.63347  -0.63243  -0.63114
 Alpha  occ. eigenvalues --   -0.63039  -0.62891  -0.62779  -0.62695  -0.62588
 Alpha  occ. eigenvalues --   -0.62528  -0.60101  -0.60082  -0.60062  -0.59919
 Alpha  occ. eigenvalues --   -0.59896  -0.59868  -0.58718  -0.57861  -0.57758
 Alpha  occ. eigenvalues --   -0.57320  -0.57132  -0.57052  -0.56996  -0.56845
 Alpha  occ. eigenvalues --   -0.54076  -0.53951  -0.53397  -0.53189  -0.53065
 Alpha  occ. eigenvalues --   -0.52991  -0.52866  -0.52308  -0.51992  -0.51931
 Alpha  occ. eigenvalues --   -0.51884  -0.51870  -0.51856  -0.51762  -0.51219
 Alpha  occ. eigenvalues --   -0.51205  -0.51121  -0.51093  -0.50976  -0.50949
 Alpha  occ. eigenvalues --   -0.50284  -0.50181  -0.50158  -0.50090  -0.50064
 Alpha  occ. eigenvalues --   -0.50001  -0.49896  -0.48948  -0.48845  -0.48321
 Alpha  occ. eigenvalues --   -0.48209  -0.46975  -0.46873  -0.46268  -0.46174
 Alpha  occ. eigenvalues --   -0.46097  -0.45947  -0.45853  -0.45842  -0.45415
 Alpha  occ. eigenvalues --   -0.45341  -0.45242  -0.44704  -0.44419  -0.44335
 Alpha  occ. eigenvalues --   -0.44311  -0.44244  -0.43343  -0.43217  -0.42535
 Alpha  occ. eigenvalues --   -0.42440  -0.42038  -0.41919  -0.41444  -0.41333
 Alpha  occ. eigenvalues --   -0.41274  -0.41174  -0.41098  -0.41008  -0.40902
 Alpha  occ. eigenvalues --   -0.40797  -0.40701  -0.40679  -0.40590  -0.40492
 Alpha  occ. eigenvalues --   -0.40295  -0.40059  -0.39890  -0.39816  -0.39798
 Alpha  occ. eigenvalues --   -0.39710  -0.39573  -0.39546  -0.39497  -0.39460
 Alpha  occ. eigenvalues --   -0.38876  -0.38855  -0.38677  -0.38637  -0.38627
 Alpha  occ. eigenvalues --   -0.38448  -0.38441  -0.38329  -0.37857  -0.37759
 Alpha  occ. eigenvalues --   -0.37719  -0.37625  -0.37555  -0.37506  -0.37467
 Alpha  occ. eigenvalues --   -0.37445  -0.37398  -0.37394  -0.37371  -0.37257
 Alpha  occ. eigenvalues --   -0.37107  -0.37065  -0.36683  -0.36360  -0.36295
 Alpha  occ. eigenvalues --   -0.36231  -0.36178  -0.35922  -0.35860  -0.35848
 Alpha  occ. eigenvalues --   -0.35782  -0.35727  -0.35688  -0.35611  -0.35604
 Alpha  occ. eigenvalues --   -0.35575  -0.35548  -0.35526  -0.35515  -0.35512
 Alpha  occ. eigenvalues --   -0.35481  -0.35433  -0.35413  -0.35348  -0.35143
 Alpha  occ. eigenvalues --   -0.35076  -0.34994  -0.34436  -0.34331  -0.34218
 Alpha  occ. eigenvalues --   -0.34216  -0.34193  -0.34134  -0.34131  -0.33706
 Alpha  occ. eigenvalues --   -0.33656  -0.33593  -0.33439  -0.33428  -0.33331
 Alpha  occ. eigenvalues --   -0.33217  -0.33193  -0.33167  -0.33051  -0.33014
 Alpha  occ. eigenvalues --   -0.32907  -0.32538  -0.32114  -0.31587  -0.31478
 Alpha  occ. eigenvalues --   -0.31334  -0.31231  -0.31224  -0.31153  -0.31139
 Alpha  occ. eigenvalues --   -0.30904  -0.30713  -0.30577  -0.30522  -0.30442
 Alpha  occ. eigenvalues --   -0.30145  -0.30062  -0.30000  -0.29957  -0.29922
 Alpha  occ. eigenvalues --   -0.29913  -0.29861  -0.29814  -0.29743  -0.29675
 Alpha  occ. eigenvalues --   -0.29599  -0.29529  -0.29517  -0.29464  -0.29428
 Alpha  occ. eigenvalues --   -0.29370  -0.29321  -0.29169  -0.29092  -0.28892
 Alpha  occ. eigenvalues --   -0.28814  -0.28699  -0.28591  -0.28471  -0.28411
 Alpha  occ. eigenvalues --   -0.28336  -0.28165  -0.27497  -0.27389  -0.26931
 Alpha  occ. eigenvalues --   -0.26798  -0.26676  -0.26360  -0.25914  -0.25579
 Alpha  occ. eigenvalues --   -0.25483  -0.25471  -0.25382  -0.25368  -0.25270
 Alpha  occ. eigenvalues --   -0.25183  -0.25062  -0.25031  -0.25027  -0.25013
 Alpha  occ. eigenvalues --   -0.24999  -0.24978  -0.24969  -0.24954  -0.24928
 Alpha  occ. eigenvalues --   -0.24901  -0.24845  -0.24601  -0.24460  -0.24336
 Alpha  occ. eigenvalues --   -0.24044  -0.23987  -0.23921  -0.23890  -0.23812
 Alpha  occ. eigenvalues --   -0.23702  -0.23555  -0.23451  -0.23347  -0.22931
 Alpha  occ. eigenvalues --   -0.22508  -0.22134  -0.21776  -0.21721  -0.21592
 Alpha  occ. eigenvalues --   -0.21554  -0.21281  -0.18251  -0.17856
 Alpha virt. eigenvalues --   -0.14813  -0.14760  -0.14099  -0.13370  -0.13248
 Alpha virt. eigenvalues --   -0.13012  -0.12894  -0.11954  -0.11884  -0.11100
 Alpha virt. eigenvalues --   -0.09065  -0.08955  -0.08718  -0.08116  -0.07761
 Alpha virt. eigenvalues --   -0.07250  -0.07249  -0.07243  -0.07170  -0.07121
 Alpha virt. eigenvalues --   -0.07024  -0.06945  -0.06929  -0.06192  -0.06123
 Alpha virt. eigenvalues --   -0.06005  -0.05932  -0.05881  -0.03518  -0.03360
 Alpha virt. eigenvalues --   -0.03126  -0.03121  -0.02840  -0.02746  -0.02625
 Alpha virt. eigenvalues --   -0.02518  -0.02367  -0.01985  -0.01847  -0.01038
 Alpha virt. eigenvalues --   -0.01018  -0.00802  -0.00236  -0.00020   0.00110
 Alpha virt. eigenvalues --    0.00592   0.00734   0.01865   0.01938   0.02013
 Alpha virt. eigenvalues --    0.02142   0.02427   0.02527   0.03835   0.03937
 Alpha virt. eigenvalues --    0.05337   0.05424   0.07262   0.07367   0.09217
 Alpha virt. eigenvalues --    0.09325   0.09436   0.09841   0.09949   0.10902
 Alpha virt. eigenvalues --    0.11051   0.11144   0.11229   0.26290   0.26300
 Alpha virt. eigenvalues --    0.26381   0.26474   0.26559   0.26925   0.27238
 Alpha virt. eigenvalues --    0.27291   0.27338   0.27629   0.27657   0.28115
 Alpha virt. eigenvalues --    0.28939   0.29103   0.29105   0.29212   0.29213
 Alpha virt. eigenvalues --    0.29316   0.29497   0.29719   0.29827   0.29967
 Alpha virt. eigenvalues --    0.30007   0.31219   0.31258   0.33334   0.34983
 Alpha virt. eigenvalues --    0.35124   0.35410   0.36147   0.36878   0.36976
 Alpha virt. eigenvalues --    0.38386   0.38467   0.38651   0.38814   0.38897
 Alpha virt. eigenvalues --    0.38972   0.39469   0.39528   0.40036   0.40318
 Alpha virt. eigenvalues --    0.40528   0.40782   0.41210   0.41292   0.42057
 Alpha virt. eigenvalues --    0.42638   0.42724   0.42750   0.43228   0.43229
 Alpha virt. eigenvalues --    0.43348   0.43350   0.43892   0.43995   0.44270
 Alpha virt. eigenvalues --    0.44301   0.46298   0.46414   0.46817   0.46850
 Alpha virt. eigenvalues --    0.46956   0.47349   0.47658   0.47708   0.47799
 Alpha virt. eigenvalues --    0.47873   0.48005   0.48099   0.48194   0.48445
 Alpha virt. eigenvalues --    0.48572   0.48622   0.48695   0.52162   0.52396
 Alpha virt. eigenvalues --    0.52674   0.52783   0.53086   0.53224   0.53334
 Alpha virt. eigenvalues --    0.53497   0.53632   0.53651   0.54649   0.54983
 Alpha virt. eigenvalues --    0.55249   0.55343   0.55489   0.56868   0.56895
 Alpha virt. eigenvalues --    0.56931   0.56987   0.57311   0.57437   0.57452
 Alpha virt. eigenvalues --    0.57624   0.58854   0.59303   0.59772   0.60302
 Alpha virt. eigenvalues --    0.60342   0.60988   0.61086   0.61606   0.61884
 Alpha virt. eigenvalues --    0.61969   0.62052   0.62081   0.62138   0.62218
 Alpha virt. eigenvalues --    0.63517   0.63749   0.63905   0.63981   0.64450
 Alpha virt. eigenvalues --    0.64600   0.64708   0.64724   0.64816   0.65238
 Alpha virt. eigenvalues --    0.65413   0.65516   0.65926   0.67204   0.67239
 Alpha virt. eigenvalues --    0.67368   0.67542   0.67669   0.67671   0.67752
 Alpha virt. eigenvalues --    0.67903   0.68277   0.68552   0.69282   0.69870
 Alpha virt. eigenvalues --    0.70084   0.70184   0.70328   0.70634   0.70767
 Alpha virt. eigenvalues --    0.71111   0.71135   0.71208   0.71371   0.71705
 Alpha virt. eigenvalues --    0.71771   0.72369   0.72459   0.72467   0.73322
 Alpha virt. eigenvalues --    0.73404   0.73558   0.73576   0.73669   0.73718
 Alpha virt. eigenvalues --    0.73772   0.74089   0.74187   0.74259   0.74598
 Alpha virt. eigenvalues --    0.74785   0.74911   0.74917   0.75015   0.75247
 Alpha virt. eigenvalues --    0.75484   0.75586   0.75649   0.75943   0.77696
 Alpha virt. eigenvalues --    0.77877   0.79891   0.80054   0.80359   0.80453
 Alpha virt. eigenvalues --    0.80559   0.81123   0.81167   0.81206   0.81255
 Alpha virt. eigenvalues --    0.82062   0.82141   0.82290   0.82447   0.82494
 Alpha virt. eigenvalues --    0.82925   0.83855   0.84927   0.85029   0.85183
 Alpha virt. eigenvalues --    0.91558   0.93822   0.93943   0.94010   0.94726
 Alpha virt. eigenvalues --    0.94830   0.94925   0.94968   0.95065   0.95355
 Alpha virt. eigenvalues --    0.95364   0.95501   0.95545   0.95736   0.95848
 Alpha virt. eigenvalues --    0.95889   0.95972   0.96794   0.96906   0.97423
 Alpha virt. eigenvalues --    0.97637   0.98848   0.99044   1.00351   1.00441
 Alpha virt. eigenvalues --    1.01344   1.01475   1.02286   1.02388   1.03086
 Alpha virt. eigenvalues --    1.03198
          Condensed to atoms (all electrons):
 Mulliken charges:
               1
     1  C   -0.048206
     2  C   -0.069459
     3  C   -0.069439
     4  C   -0.063036
     5  C   -0.048252
     6  C    0.319577
     7  N   -0.465475
     8  N   -0.354472
     9  N   -0.350329
    10  C    0.265816
    11  C   -0.047401
    12  C   -0.056299
    13  C   -0.074391
    14  C   -0.074204
    15  C   -0.059481
    16  C   -0.048232
    17  C    0.262296
    18  N   -0.127376
    19  C    0.319597
    20  C   -0.063065
    21  C    0.330203
    22  C   -0.067031
    23  C    0.262267
    24  C   -0.048252
    25  C   -0.059475
    26  C   -0.074196
    27  C   -0.074411
    28  C   -0.056328
    29  C   -0.047403
    30  C    0.265781
    31  N   -0.127378
    32  N   -0.354368
    33  C   -0.040815
    34  C   -0.075814
    35  C   -0.075813
    36  C   -0.067030
    37  C   -0.040813
    38  C    0.330184
    39  N   -0.465191
    40  N   -0.350316
    41  H    0.239833
    42  H    0.239836
    43  H    0.071825
    44  H    0.082795
    45  H    0.076617
    46  H    0.068537
    47  H    0.068537
    48  H    0.076618
    49  H    0.082794
    50  H    0.071823
    51  H    0.071530
    52  H    0.085323
    53  H    0.076978
    54  H    0.070763
    55  H    0.070734
    56  H    0.076951
    57  H    0.085325
    58  H    0.071518
    59  C   -0.040502
    60  C   -0.075577
    61  C   -0.075607
    62  C   -0.067173
    63  C   -0.040579
    64  C    0.328611
    65  N   -0.462348
    66  N   -0.350243
    67  N   -0.354262
    68  C    0.262379
    69  C   -0.048137
    70  C   -0.059470
    71  C   -0.073753
    72  C   -0.074114
    73  C   -0.055882
    74  C   -0.047465
    75  C    0.266839
    76  N   -0.127653
    77  C    0.328500
    78  C   -0.067159
    79  C    0.320457
    80  C   -0.062466
    81  C    0.266811
    82  C   -0.047469
    83  C   -0.055912
    84  C   -0.074114
    85  C   -0.073751
    86  C   -0.059466
    87  C   -0.048100
    88  C    0.262240
    89  N   -0.127659
    90  N   -0.350077
    91  C   -0.048407
    92  C   -0.068643
    93  C   -0.068628
    94  C   -0.062487
    95  C   -0.048365
    96  C    0.320486
    97  N   -0.464863
    98  N   -0.354167
    99  H    0.239874
   100  H    0.239877
   101  H    0.071835
   102  H    0.085662
   103  H    0.077121
   104  H    0.071015
   105  H    0.071024
   106  H    0.077135
   107  H    0.085671
   108  H    0.071843
   109  H    0.072085
   110  H    0.082889
   111  H    0.076918
   112  H    0.068901
   113  H    0.068900
   114  H    0.076928
   115  H    0.082883
   116  H    0.072073
   117  C   -0.048130
   118  C    0.238220
   119  C   -0.048115
   120  C    0.002341
   121  C    0.002342
   122  C    0.002535
   123  C    0.002522
   124  C   -0.048151
   125  C    0.002337
   126  C   -0.048155
   127  C    0.002532
   128  C   -0.002879
   129  C   -0.000682
   130  C   -0.002195
   131  C    0.002916
   132  C   -0.002016
   133  C   -0.000855
   134  C   -0.002946
   135  C   -0.002952
   136  C    0.000945
   137  C    0.001022
   138  C   -0.001535
   139  C   -0.000454
   140  C    0.001616
   141  C    0.000037
   142  C    0.002360
   143  C   -0.000549
   144  C    0.002534
   145  C    0.007373
   146  C   -0.000822
   147  C   -0.000627
   148  C    0.002830
   149  C   -0.008462
   150  C   -0.014634
   151  C    0.004861
   152  C    0.007236
   153  C   -0.001168
   154  C    0.001132
   155  C    0.001148
   156  C   -0.000662
   157  C   -0.002278
   158  C    0.002879
   159  C    0.000050
   160  C    0.002158
   161  C   -0.005804
   162  C    0.007161
   163  C    0.006939
   164  C   -0.007749
   165  C   -0.004060
   166  C    0.007728
   167  C    0.005457
   168  C    0.005808
   169  C   -0.001582
   170  C   -0.000579
   171  C   -0.000906
   172  C   -0.002043
   173  C   -0.002879
   174  C    0.002364
   175  C    0.007506
   176  C    0.238148
   177  O   -0.325933
 Sum of Mulliken charges =  -0.00000
 Mulliken charges with hydrogens summed into heavy atoms:
               1
     1  C   -0.048206
     2  C    0.001275
     3  C    0.001324
     4  C    0.013942
     5  C   -0.048252
     6  C    0.319577
     7  N   -0.465475
     8  N   -0.354472
     9  N   -0.350329
    10  C    0.265816
    11  C   -0.047401
    12  C    0.029024
    13  C   -0.002861
    14  C   -0.002381
    15  C    0.023313
    16  C   -0.048232
    17  C    0.262296
    18  N    0.112459
    19  C    0.319597
    20  C    0.013886
    21  C    0.330203
    22  C    0.009587
    23  C    0.262267
    24  C   -0.048252
    25  C    0.023320
    26  C   -0.002371
    27  C   -0.002893
    28  C    0.028997
    29  C   -0.047403
    30  C    0.265781
    31  N    0.112455
    32  N   -0.354368
    33  C   -0.040815
    34  C   -0.007277
    35  C   -0.007275
    36  C    0.009586
    37  C   -0.040813
    38  C    0.330184
    39  N   -0.465191
    40  N   -0.350316
    59  C   -0.040502
    60  C   -0.006676
    61  C   -0.006705
    62  C    0.009745
    63  C   -0.040579
    64  C    0.328611
    65  N   -0.462348
    66  N   -0.350243
    67  N   -0.354262
    68  C    0.262379
    69  C   -0.048137
    70  C    0.023419
    71  C   -0.001668
    72  C   -0.002271
    73  C    0.029790
    74  C   -0.047465
    75  C    0.266839
    76  N    0.112224
    77  C    0.328500
    78  C    0.009769
    79  C    0.320457
    80  C    0.014669
    81  C    0.266811
    82  C   -0.047469
    83  C    0.029750
    84  C   -0.002279
    85  C   -0.001679
    86  C    0.023417
    87  C   -0.048100
    88  C    0.262240
    89  N    0.112215
    90  N   -0.350077
    91  C   -0.048407
    92  C    0.002381
    93  C    0.002388
    94  C    0.014633
    95  C   -0.048365
    96  C    0.320486
    97  N   -0.464863
    98  N   -0.354167
   117  C   -0.048130
   118  C    0.238220
   119  C   -0.048115
   120  C    0.002341
   121  C    0.002342
   122  C    0.002535
   123  C    0.002522
   124  C   -0.048151
   125  C    0.002337
   126  C   -0.048155
   127  C    0.002532
   128  C   -0.002879
   129  C   -0.000682
   130  C   -0.002195
   131  C    0.002916
   132  C   -0.002016
   133  C   -0.000855
   134  C   -0.002946
   135  C   -0.002952
   136  C    0.000945
   137  C    0.001022
   138  C   -0.001535
   139  C   -0.000454
   140  C    0.001616
   141  C    0.000037
   142  C    0.002360
   143  C   -0.000549
   144  C    0.002534
   145  C    0.007373
   146  C   -0.000822
   147  C   -0.000627
   148  C    0.002830
   149  C   -0.008462
   150  C   -0.014634
   151  C    0.004861
   152  C    0.007236
   153  C   -0.001168
   154  C    0.001132
   155  C    0.001148
   156  C   -0.000662
   157  C   -0.002278
   158  C    0.002879
   159  C    0.000050
   160  C    0.002158
   161  C   -0.005804
   162  C    0.007161
   163  C    0.006939
   164  C   -0.007749
   165  C   -0.004060
   166  C    0.007728
   167  C    0.005457
   168  C    0.005808
   169  C   -0.001582
   170  C   -0.000579
   171  C   -0.000906
   172  C   -0.002043
   173  C   -0.002879
   174  C    0.002364
   175  C    0.007506
   176  C    0.238148
   177  O   -0.325933
 Electronic spatial extent (au):  <R**2>=          89211.3651
 Charge=            -30.0800 electrons
 Dipole moment (field-independent basis, Debye):
    X=            -12.1679    Y=              0.2388    Z=              2.0431  Tot=             12.3406
 Quadrupole moment (field-independent basis, Debye-Ang):
   XX=          -3837.9524   YY=          -2077.0473   ZZ=          -2030.5431
   XY=             -2.8179   XZ=            -13.9607   YZ=             -0.5308
 Traceless Quadrupole moment (field-independent basis, Debye-Ang):
   XX=          -1189.4382   YY=            571.4670   ZZ=            617.9712
   XY=             -2.8179   XZ=            -13.9607   YZ=             -0.5308
 Octapole moment (field-independent basis, Debye-Ang**2):
  XXX=           -989.3463  YYY=           -208.3205  ZZZ=           -914.9596  XYY=           1706.3965
  XXY=            644.8275  XXZ=           4143.0559  XZZ=             80.9835  YZZ=            -16.1997
  YYZ=           -439.2773  XYZ=           -233.0726
 Hexadecapole moment (field-independent basis, Debye-Ang**3):
 XXXX=        -225890.2358 YYYY=         -71627.7811 ZZZZ=         -66594.4611 XXXY=          -1305.1439
 XXXZ=          -8279.6132 YYYX=            734.6454 YYYZ=           2732.0100 ZZZX=          -2789.7880
 ZZZY=          -2476.6106 XXYY=         -45950.2677 XXZZ=         -47744.7309 YYZZ=         -18704.3309
 XXYZ=           -612.7966 YYXZ=           1192.0305 ZZXY=          -1093.4800
 N-N= 1.599070744727D+04 E-N= 0.000000000000D+00  KE=-3.224348860973D+04
 Leave Link  601 at Fri Jan 27 17:12:09 2023, MaxMem=  4026531840 cpu:               4.3 elap:               0.6
 (Enter /software/gaussian/g16-c01/avx/g16/l9999.exe)

 This type of calculation cannot be archived.


 LIVE PURE, SPEAK TRUE, RIGHT WRONG, FOLLOW THE KING...
 ELSE, WHEREFORE BORN......
           IDYLLS OF THE KING, TENNYSON
 Job cpu time:       0 days  0 hours  6 minutes 58.7 seconds.
 Elapsed time:       0 days  0 hours  0 minutes 41.9 seconds.
 File lengths (MBytes):  RWF=   2080 Int=      0 D2E=      0 Chk=    944 Scr=     32
 Normal termination of Gaussian 16 at Fri Jan 27 17:12:09 2023.
