60
MD Step 0 Units = [eV / Ang.]
C  0.78283618 -1.30938719 0.63526845
C  0.81043722 -1.41287028 0.27468472
C  1.20853951 0.71951082 0.86587021
C  1.11403285 0.46634965 1.12703915
C  1.28453269 -0.15252900 -1.02803941
C  1.35135021 0.20307482 -0.92906668
C  1.05354552 -1.05841695 0.70590126
C  1.24929264 -1.00744434 0.38911443
C  1.10072478 -1.22725014 0.12258631
C  -0.23163713 -0.20702728 1.62314227
C  1.43123765 0.54870136 0.61445852
C  1.27788030 0.14106455 1.03878237
C  0.46970101 1.47255377 -0.58338536
C  0.44087153 1.57538584 -0.22130802
C  1.41944254 -0.37701059 -0.75646413
C  1.56994704 -0.15814614 -0.48879525
C  1.52757802 0.20142948 -0.59464459
C  -0.09489814 -1.29716510 -1.01866793
C  -0.00076284 -1.04387871 -1.28068774
C  -0.97804862 -1.29803103 0.29599927
C  -0.80165441 -1.30053745 0.62836930
C  0.37288083 -0.99502335 -1.26581305
C  0.50706367 -1.21801099 -0.99358073
C  0.21849290 -1.40427634 -0.84157078
C  -0.03474736 0.73802423 -1.47878951
C  -0.30708372 0.48651271 -1.54834138
C  -0.14204607 0.15934638 -1.63778539
C  0.75544926 1.46941320 -0.04571876
C  1.47269324 0.19049636 0.72020450
C  -1.05331576 1.05845259 -0.70512205
C  0.00012211 1.04381769 1.28028902
C  0.09499841 1.29722062 1.01860628
C  -1.52756779 -0.20144853 0.59463911
C  -1.35133924 -0.20306053 0.92907038
C  -0.81054282 1.41277752 -0.27472301
C  -1.10072431 1.22718505 -0.12268752
C  -1.24922329 1.00745411 -0.38928753
C  0.97823135 1.29795844 -0.29591502
C  0.80170174 1.30054697 -0.62845339
C  -0.37272722 0.99503952 1.26583975
C  -0.21851135 1.40427177 0.84158213
C  0.03475503 -0.73803043 1.47886242
C  0.30689305 -0.48651098 1.54803197
C  -1.56978970 0.15811635 0.48895034
C  -1.41935443 0.37687586 0.75634981
C  -1.28452378 0.15253577 1.02808598
C  -1.11409826 -0.46640302 -1.12703624
C  -1.20821693 -0.71948281 -0.86601288
C  0.23163359 0.20706010 -1.62311186
C  0.29626571 0.56493750 -1.52277123
C  -1.43136340 -0.54866032 -0.61438787
C  -1.47271627 -0.19045798 -0.72019547
C  -1.27789883 -0.14100633 -1.03885253
C  -0.46963992 -1.47260292 0.58328026
C  -0.44055738 -1.57538890 0.22201298
C  -0.75618848 -1.46912990 0.04513427
C  0.14217034 -0.15934318 1.63798234
C  -0.50700146 1.21797952 0.99361462
C  -0.29628863 -0.56494411 1.52278580
C  -0.78283337 1.30938223 -0.63532292
60
MD Step 1 Units = [eV / Ang.]
C  0.79180940 -1.28262321 0.60821091
C  0.81650653 -1.37551181 0.28447201
C  1.20076091 0.68274105 0.85509523
C  1.11597096 0.45545420 1.08954831
C  1.28054604 -0.14190879 -0.99060798
C  1.34055568 0.17726359 -0.90173390
C  1.03477439 -1.05726284 0.67161673
C  1.21047166 -1.01150717 0.38720841
C  1.07719486 -1.20892189 0.14793249
C  -0.20884293 -0.22415842 1.59629261
C  1.40071381 0.52935011 0.62933729
C  1.26309861 0.16351958 1.01039587
C  0.48300011 1.44869653 -0.55537975
C  0.45708773 1.54093521 -0.23019887
C  1.40164034 -0.34355637 -0.74676021
C  1.53677330 -0.14707625 -0.50636215
C  1.49874402 0.17583720 -0.60133274
C  -0.06730927 -1.27065183 -1.01063150
C  0.01712550 -1.04323738 -1.24590964
C  -0.93944648 -1.29199588 0.29732606
C  -0.78105390 -1.29424885 0.59571955
C  0.35263683 -0.99936216 -1.23260885
C  0.47305756 -1.19955037 -0.98811995
C  0.21402053 -1.36675420 -0.85164740
C  -0.03042907 0.70104308 -1.46672503
C  -0.27497490 0.47516530 -1.52905603
C  -0.12670916 0.18141610 -1.60937873
C  0.73958869 1.44595340 -0.07267762
C  1.43786169 0.20775185 0.72421758
C  -1.03455435 1.05729623 -0.67086938
C  -0.01774124 1.04317825 1.24553031
C  0.06740516 1.27070437 1.01057136
C  -1.49873170 -0.17585691 0.60132881
C  -1.34054466 -0.17725008 0.90173722
C  -0.81660720 1.37542377 -0.28450866
C  -1.07719567 1.20885902 -0.14802985
C  -1.21040459 1.01151556 -0.38737073
C  0.93962099 1.29192629 -0.29724599
C  0.78110129 1.29425796 -0.59580078
C  -0.35249201 0.99937650 1.23263427
C  -0.21403867 1.36675073 0.85165761
C  0.03043421 -0.70104970 1.46679571
C  0.27479261 -0.47516265 1.52875594
C  -1.53662237 0.14704968 0.50650969
C  -1.40155443 0.34342669 0.74665040
C  -1.28053648 0.14191341 0.99065463
C  -1.11603307 -0.45550656 -1.08954715
C  -1.20044760 -0.68271462 -0.85523301
C  0.20883885 0.22418842 -1.59626358
C  0.26671940 0.54556332 -1.50607963
C  -1.40083425 -0.52931076 -0.62927018
C  -1.43788306 -0.20771493 -0.72421006
C  -1.26311768 -0.16346229 -1.01046226
C  -0.48293989 -1.44874344 0.55528097
C  -0.45678802 -1.54093712 0.23087820
C  -0.74029984 -1.44567613 0.07211545
C  0.12682749 -0.18141579 1.60956497
C  -0.47299877 1.19952191 0.98815212
C  -0.26674237 -0.54556940 1.50609397
C  -0.79180553 1.28261851 -0.60826308
60
MD Step 2 Units = [eV / Ang.]
C  0.80267490 -1.24891501 0.57437496
C  0.82375049 -1.32860638 0.29653205
C  1.19066759 0.63681527 0.84140630
C  1.11797946 0.44175677 1.04257948
C  1.27513542 -0.12866075 -0.94374953
C  1.32666498 0.14513025 -0.86745553
C  1.01108480 -1.05545013 0.62878343
C  1.16180641 -1.01619418 0.38469927
C  1.04758042 -1.18571843 0.17937070
C  -0.18044738 -0.24535655 1.56236486
C  1.36229455 0.50511912 0.64759528
C  1.24428381 0.19135722 0.97476935
C  0.49934918 1.41854063 -0.52038893
C  0.47706658 1.49758310 -0.24116041
C  1.37902332 -0.30187341 -0.73443946
C  1.49501450 -0.13327238 -0.52800166
C  1.46238530 0.14398386 -0.60942467
C  -0.03301126 -1.23726169 -1.00028761
C  0.03934146 -1.04206673 -1.20225737
C  -0.89114987 -1.28403691 0.29886785
C  -0.75518266 -1.28597248 0.55494383
C  0.32736186 -1.00439453 -1.19091823
C  0.43063836 -1.17618859 -0.98098142
C  0.20839073 -1.31964785 -0.86385921
C  -0.02505142 0.65484917 -1.45121453
C  -0.23499189 0.46089862 -1.50455049
C  -0.10760717 0.20876675 -1.57351175
C  0.71962255 1.41629308 -0.10614593
C  1.39407206 0.22911561 0.72894245
C  -1.01087799 1.05547979 -0.62807404
C  -0.03992947 1.04200951 1.20190263
C  0.03310084 1.23730964 1.00022861
C  -1.46237002 -0.14400195 0.60942246
C  -1.32665453 -0.14511823 0.86745782
C  -0.82384573 1.32852414 -0.29656675
C  -1.04758338 1.18565870 -0.17946141
C  -1.16174021 1.01620170 -0.38485194
C  0.89131219 1.28396961 -0.29879360
C  0.75522993 1.28598084 -0.55501986
C  -0.32722444 1.00440825 1.19093991
C  -0.20840724 1.31964539 0.86386824
C  0.02505394 -0.65485530 1.45128326
C  0.23482142 -0.46089766 1.50425876
C  -1.49487291 0.13324752 0.52814062
C  -1.37893871 0.30175138 0.73433667
C  -1.27512539 0.12866348 0.94379409
C  -1.11803985 -0.44180555 -1.04257882
C  -1.19036330 -0.63679061 -0.84153771
C  0.18044345 0.24538375 -1.56233830
C  0.22991731 0.52130159 -1.48480121
C  -1.36240818 -0.50507998 -0.64753345
C  -1.39409146 -0.22908120 -0.72893538
C  -1.24430165 -0.19130357 -0.97483151
C  -0.49929011 -1.41858433 0.52029619
C  -0.47678265 -1.49758602 0.24181076
C  -0.72030083 -1.41601963 0.10560941
C  0.10771672 -0.20877026 1.57368714
C  -0.43058430 1.17616262 0.98101255
C  -0.22994124 -0.52130819 1.48481626
C  -0.80266930 1.24891113 -0.57442452
60
MD Step 3 Units = [eV / Ang.]
C  0.81459366 -1.21017850 0.53581012
C  0.83156084 -1.27489531 0.31004225
C  1.17868376 0.58453803 0.82551805
C  1.11972668 0.42604656 0.98893030
C  1.26841182 -0.11360560 -0.89027233
C  1.31032004 0.10869433 -0.82825209
C  0.98379867 -1.05290100 0.58001064
C  1.10618037 -1.02102127 0.38167847
C  1.01357154 -1.15889811 0.21486746
C  -0.14822434 -0.26923215 1.52323068
C  1.31817223 0.47745669 0.66795454
C  1.22240400 0.22277297 0.93398981
C  0.51761747 1.38374342 -0.48054276
C  0.49945244 1.44781596 -0.25345191
C  1.35277793 -0.25455729 -0.72014948
C  1.44704902 -0.11758743 -0.55224448
C  1.42054748 0.10786591 -0.61829580
C  0.00582185 -1.19888902 -0.98811067
C  0.06446619 -1.04025175 -1.15228769
C  -0.83606874 -1.27442542 0.30047201
C  -0.72554687 -1.27600010 0.50853370
C  0.29860174 -1.00961767 -1.14317308
C  0.38242770 -1.14919582 -0.97244110
C  0.20192140 -1.26571364 -0.87727367
C  -0.01895283 0.60226053 -1.43297704
C  -0.18963013 0.44453534 -1.47610794
C  -0.08593813 0.23962225 -1.53217853
C  0.69668788 1.38205751 -0.14397465
C  1.34385735 0.25318710 0.73394601
C  -0.98360656 1.05292713 -0.57934364
C  -0.06502287 1.04019580 1.15196066
C  -0.00573795 1.19893355 0.98805248
C  -1.42053043 -0.10788287 0.61829462
C  -1.31030889 -0.10868288 0.82825381
C  -0.83164977 1.27482083 -0.31007503
C  -1.01357615 1.15884200 -0.21495138
C  -1.10611681 1.02102779 -0.38181984
C  0.83621812 1.27436098 -0.30040473
C  0.72559421 1.27600712 -0.50860296
C  -0.29847258 1.00963087 1.14319127
C  -0.20193667 1.26571178 0.87728203
C  0.01895278 -0.60226608 1.43304331
C  0.18947434 -0.44453695 1.47582668
C  -1.44692002 0.11756322 0.55237131
C  -1.35269384 0.25444441 0.72005643
C  -1.26840154 0.11360639 0.89031284
C  -1.11978532 -0.42609095 -0.98892916
C  -1.17839020 -0.58451645 -0.82564138
C  0.14822132 0.26925575 -1.52320699
C  0.18815943 0.49360003 -1.46002060
C  -1.31827933 -0.47742012 -0.66789793
C  -1.34387369 -0.25315397 -0.73394039
C  -1.22242126 -0.22272370 -0.93404713
C  -0.51755939 -1.38378386 0.48045682
C  -0.49918667 -1.44781917 0.25407094
C  -0.69732911 -1.38178919 0.14346553
C  0.08603630 -0.23962948 1.53234214
C  -0.38237866 1.14917255 0.97246975
C  -0.18818255 -0.49360545 1.46003593
C  -0.81458725 1.21017439 -0.53585619
60
MD Step 4 Units = [eV / Ang.]
C  0.82686516 -1.16801652 0.49423200
C  0.83942564 -1.21667502 0.32431393
C  1.16516568 0.52825910 0.80803008
C  1.12093409 0.40898624 0.93094430
C  1.26046861 -0.09743106 -0.83252812
C  1.29205702 0.06964618 -0.78581741
C  0.95402208 -1.04955209 0.52748419
C  1.04601104 -1.02558215 0.37822046
C  0.97658507 -1.12951729 0.25271992
C  -0.11365991 -0.29461823 1.48045910
C  1.27018580 0.44757867 0.68934179
C  1.19827251 0.25625374 0.88980586
C  0.53685665 1.34569495 -0.43762647
C  0.52310883 1.39371245 -0.26645268
C  1.32389735 -0.20378149 -0.70443501
C  1.39487437 -0.10073611 -0.57785572
C  1.37494416 0.06915812 -0.62742177
C  0.04736672 -1.15712414 -0.97449789
C  0.09131036 -1.03769458 -1.09814233
C  -0.77664205 -1.26338875 0.30200993
C  -0.69340916 -1.26457584 0.45857747
C  0.26765359 -1.01460927 -1.09141315
C  0.33061994 -1.11963588 -0.96272839
C  0.19488021 -1.20725955 -0.89110805
C  -0.01241647 0.54563841 -1.41261681
C  -0.14098445 0.42676444 -1.44480397
C  -0.06270330 0.27249421 -1.48704919
C  0.67173678 1.34461148 -0.18436316
C  1.28933717 0.27879147 0.73886601
C  -0.95384646 1.04957387 -0.52686266
C  -0.09183286 1.03764087 1.09784472
C  -0.04729017 1.15716406 0.97444068
C  -1.37492473 -0.06917328 0.62742184
C  -1.29204614 -0.06963602 0.78581853
C  -0.83950847 1.21660795 -0.32434459
C  -0.97659147 1.12946562 -0.25279595
C  -1.04594967 1.02558729 -0.37835093
C  0.77677745 1.26332669 -0.30195085
C  0.69345715 1.26458200 -0.45863948
C  -0.26753397 1.01462099 1.09142786
C  -0.19489386 1.20725819 0.89111514
C  0.01241456 -0.54564247 1.41268102
C  0.14084329 -0.42676999 1.44453310
C  -1.39475793 0.10071245 0.57797003
C  -1.32381358 0.20367830 0.70435222
C  -1.26045758 0.09743030 0.83256534
C  -1.12099119 -0.40902548 -0.93094369
C  -1.16488339 -0.52824015 -0.80814454
C  0.11365869 0.29463839 -1.48043832
C  0.14337021 0.46366884 -1.43264413
C  -1.27028502 -0.44754365 -0.68929191
C  -1.28934979 -0.27876107 -0.73886163
C  -1.19828781 -0.25621056 -0.88985722
C  -0.53680075 -1.34573113 0.43754642
C  -0.52286249 -1.39371638 0.26703810
C  -0.67233854 -1.34434733 0.18388508
C  0.06278871 -0.27250508 1.48719971
C  -0.33057682 1.11961644 0.96275508
C  -0.14339412 -0.46367421 1.43266034
C  -0.82685672 1.16801307 -0.49427421
60
MD Step 5 Units = [eV / Ang.]
C  0.83890922 -1.12376931 0.45106656
C  0.84692350 -1.15585731 0.33877745
C  1.15041352 0.46993251 0.78944567
C  1.12137639 0.39112718 0.87057188
C  1.25138832 -0.08070657 -0.77247584
C  1.27232861 0.02938968 -0.74156166
C  0.92267955 -1.04535317 0.47302162
C  0.98330847 -1.02954504 0.37438910
C  0.93780250 -1.09845591 0.29151516
C  -0.07798787 -0.32054785 1.43535949
C  1.21986807 0.41649401 0.71087079
C  1.17256826 0.29054508 0.84367441
C  0.55628343 1.30555511 -0.39312370
C  0.54709379 1.33700766 -0.27964893
C  1.29321312 -0.15135413 -0.68775020
C  1.34015431 -0.08331246 -0.60381337
C  1.32700536 0.02925264 -0.63636978
C  0.09011028 -1.11329326 -0.95978473
C  0.11888569 -1.03432016 -1.04160442
C  -0.71489597 -1.25112181 0.30337759
C  -0.65982272 -1.25190868 0.40681062
C  0.23559634 -1.01902326 -1.03733705
C  0.27703889 -1.08839844 -0.95203911
C  0.18749074 -1.14620830 -0.90471539
C  -0.00567694 0.48694576 -1.39064248
C  -0.09079429 0.40816195 -1.41153854
C  -0.03873348 0.30614672 -1.43951688
C  0.64556480 1.30509196 -0.22581985
C  1.23227732 0.30495705 0.74340456
C  -0.92252133 1.04537059 -0.47244788
C  -0.11937285 1.03426831 1.04133852
C  -0.09004157 1.11332816 0.95972848
C  -1.32698335 -0.02926562 0.63637094
C  -1.27231729 -0.02938035 0.74156227
C  -0.84700015 1.15579790 -0.33880590
C  -0.93781072 1.09840906 -0.29158271
C  -0.98324855 1.02954927 -0.37450873
C  0.71501630 1.25106218 -0.30332636
C  0.65987065 1.25191382 -0.40686524
C  -0.23548573 1.01903472 1.03734757
C  -0.18750235 1.14620717 0.90472162
C  0.00567220 -0.48694913 1.39070417
C  0.09066965 -0.40817033 1.41127876
C  -1.34005110 0.08329006 0.60391544
C  -1.29313077 0.15126161 0.68767837
C  -1.25137708 0.08070397 0.77250871
C  -1.12143179 -0.39116180 -0.87057127
C  -1.15014334 -0.46991624 -0.78955114
C  0.07798829 0.32056460 -1.43534189
C  0.09714982 0.43251888 -1.40343197
C  -1.21995886 -0.41646087 -0.71082702
C  -1.23228746 -0.30492939 -0.74340047
C  -1.17258117 -0.29050666 -0.84372105
C  -0.55622894 -1.30558781 0.39305038
C  -0.54686653 -1.33701325 0.28019914
C  -0.64612615 -1.30483290 0.22537277
C  0.03880661 -0.30616186 1.43965435
C  -0.27700172 1.08838219 0.95206394
C  -0.09717425 -0.43252390 1.40344832
C  -0.83889964 1.12376594 -0.45110510
60
MD Step 6 Units = [eV / Ang.]
C  0.85025814 -1.07854245 0.40748870
C  0.85371672 -1.09402207 0.35296776
C  1.13468392 0.41116619 0.77018259
C  1.12087741 0.37292581 0.80942123
C  1.24124990 -0.06390122 -0.71172728
C  1.25151598 -0.01092389 -0.69664831
C  0.89053749 -1.04027307 0.41811949
C  0.91973109 -1.03264604 0.37024068
C  0.89820067 -1.06644789 0.33009613
C  -0.04222228 -0.34622891 1.38901826
C  1.16848677 0.38503641 0.73181866
C  1.14585849 0.32461906 0.79679814
C  0.57525798 1.26428734 -0.34825586
C  0.57063725 1.27913671 -0.29262044
C  1.26141956 -0.09875882 -0.67047430
C  1.28426573 -0.06580576 -0.62928441
C  1.27791441 -0.01070919 -0.64479018
C  0.13281094 -1.06849279 -0.94425371
C  0.14638252 -1.03007391 -0.98414815
C  -0.65250063 -1.23779438 0.30449128
C  -0.62565602 -1.23817995 0.35466216
C  0.20331653 -1.02258558 -0.98234689
C  0.22318476 -1.05622238 -0.94054237
C  0.17993875 -1.08414665 -0.91757387
C  0.00107221 0.42779827 -1.36748234
C  -0.04048935 0.38920147 -1.37706184
C  -0.01471322 0.33956878 -1.39073848
C  0.61883018 1.26444568 -0.26711807
C  1.17413881 0.33088621 0.74732180
C  -0.89039682 1.04028606 -0.41759358
C  -0.14683424 1.03002465 0.98391282
C  -0.13275030 1.06852259 0.94419870
C  -1.27788987 0.01069778 0.64479304
C  -1.25150486 0.01093122 0.69664806
C  -0.85378650 1.09397019 -0.35299427
C  -0.89821168 1.06640530 -0.33015501
C  -0.91967294 1.03264934 -0.37034884
C  0.65260682 1.23773710 -0.30444888
C  0.62570376 1.23818395 -0.35470843
C  -0.20321516 1.02259593 0.98235339
C  -0.17994758 1.08414627 0.91757881
C  -0.00107920 -0.42780059 1.36754195
C  0.04038022 -0.38921357 1.37681328
C  -1.28417618 0.06578425 0.62937293
C  -1.26133798 0.09867705 0.67041343
C  -1.24123834 0.06389732 0.71175680
C  -1.12093088 -0.37295540 -0.80942073
C  -1.13442575 -0.41115218 -0.77027891
C  0.04222468 0.34624202 -1.38900391
C  0.05081315 0.40098211 -1.37301863
C  -1.16856922 -0.38500525 -0.73178187
C  -1.17414644 -0.33086123 -0.74731881
C  -1.14586957 -0.32458662 -0.79683812
C  -0.57520586 -1.26431555 0.34818800
C  -0.57042987 -1.27914326 0.29313520
C  -0.61935045 -1.26419149 0.26670361
C  0.01477341 -0.33958766 1.39086240
C  -0.22315254 1.05620931 0.94056515
C  -0.05083769 -0.40098669 1.37303552
C  -0.85024682 1.07854003 -0.40752348
60
MD Step 7 Units = [eV / Ang.]
C  0.86054281 -1.03324349 0.36445117
C  0.85953978 -1.03245389 0.36651266
C  1.11819643 0.35326050 0.75058786
C  1.11930668 0.35475425 0.74879914
C  1.23013025 -0.04739489 -0.65159253
C  1.22994107 -0.05036253 -0.65202332
C  0.85822405 -1.03429706 0.36398950
C  0.85662641 -1.03468332 0.36582353
C  0.85857963 -1.03409558 0.36753234
C  -0.00718223 -0.37102637 1.34232746
C  1.11707740 0.35388065 0.75161092
C  1.11861479 0.35764965 0.75015543
C  0.59327078 1.22268258 -0.30401221
C  0.59312575 1.22127068 -0.30503135
C  1.22908855 -0.04719566 -0.65292207
C  1.22833444 -0.04861060 -0.65360107
C  1.22864040 -0.04980417 -0.65240834
C  0.17446963 -1.02361977 -0.92814352
C  0.17314917 -1.02492405 -0.92697150
C  -0.59081171 -1.22355713 0.30528720
C  -0.59161655 -1.22354957 0.30328727
C  0.17153165 -1.02508414 -0.92758497
C  0.17026932 -1.02371609 -0.92838392
C  0.17237382 -1.02236812 -0.92927065
C  0.00767632 0.36950526 -1.34349801
C  0.00877676 0.37027173 -1.34199380
C  0.00880679 0.37194662 -1.34166187
C  0.59207016 1.22344830 -0.30727449
C  1.11611317 0.35594071 0.75043391
C  -0.85810081 1.03430580 -0.36351152
C  -0.17356522 1.02487717 0.92676758
C  -0.17441629 1.02364441 0.92808974
C  -1.22861367 0.04979515 0.65241201
C  -1.22992963 0.05036873 0.65202292
C  -0.85960309 1.03240991 -0.36653717
C  -0.85859263 1.03405743 -0.36758259
C  -0.85657096 1.03468543 -0.36592062
C  0.59090379 1.22350293 -0.30525237
C  0.59166388 1.22355268 -0.30332676
C  -0.17143932 1.02509318 0.92758842
C  -0.17238097 1.02236767 0.92927496
C  -0.00768577 -0.36950609 1.34355459
C  -0.00887025 -0.37028690 1.34175674
C  -1.22825774 0.04858990 0.65367737
C  -1.22900844 0.04712441 0.65287162
C  -1.23011863 0.04738905 0.65161789
C  -1.11935803 -0.35477836 -0.74879840
C  -1.11795026 -0.35324949 -0.75067519
C  0.00718600 0.37103591 -1.34231657
C  0.00542069 0.36973351 -1.34193138
C  -1.11715242 -0.35385153 -0.75158010
C  -1.11611766 -0.35591771 -0.75043187
C  -1.11862382 -0.35762342 -0.75018993
C  -0.59322053 -1.22270669 0.30395109
C  -0.59293695 -1.22127899 0.30551080
C  -0.59254990 -1.22319932 0.30689099
C  -0.00875880 -0.37196964 1.34177247
C  -0.17024282 1.02370643 0.92840428
C  -0.00544528 -0.36973771 1.34194868
C  -0.86053001 1.03324165 -0.36448248
60
MD Step 8 Units = [eV / Ang.]
C  0.86948233 -0.98859995 0.32271136
C  0.86419495 -0.97218476 0.37912385
C  1.10113729 0.29725075 0.73094421
C  1.11657580 0.33691065 0.68974653
C  1.21810579 -0.03148715 -0.59311436
C  1.20787246 -0.08819281 -0.60844380
C  0.82624601 -1.02742666 0.31159356
C  0.79507138 -1.03551069 0.36118139
C  0.81958143 -1.00188718 0.40309205
C  0.02648573 -0.39444270 1.29600959
C  1.06647385 0.32356631 0.76980231
C  1.09122258 0.38898876 0.70453021
C  0.60992615 1.18138132 -0.26117870
C  0.61408024 1.16435141 -0.31662065
C  1.19668884 0.00238726 -0.63534784
C  1.17326454 -0.03203892 -0.67624642
C  1.17996592 -0.08730627 -0.65901334
C  0.21429607 -0.97939603 -0.91165449
C  0.19867247 -1.01885798 -0.87103404
C  -0.53090630 -1.20854456 0.30571798
C  -0.55827191 -1.20815924 0.25360535
C  0.14081216 -1.02636472 -0.87396759
C  0.11925336 -0.99137154 -0.91569072
C  0.16491838 -0.96190641 -0.93949177
C  0.01401196 0.31310360 -1.31899071
C  0.05609290 0.35168321 -1.30684172
C  0.03139019 0.40264295 -1.29305321
C  0.56571766 1.18272997 -0.34551305
C  1.05915444 0.37961973 0.75260447
C  -0.82613936 1.02743188 -0.31116206
C  -0.19905381 1.01881339 0.87086067
C  -0.21425015 0.97941617 0.91160204
C  -1.17993735 0.08729843 0.65901827
C  -1.20786109 0.08819779 0.60844254
C  -0.86425214 0.97214793 -0.37914631
C  -0.81959548 1.00185319 -0.40313554
C  -0.79501893 1.03551163 -0.36126767
C  0.53098532 1.20849307 -0.30569102
C  0.55831910 1.20816104 -0.25363707
C  -0.14072802 1.02637304 0.87396702
C  -0.16492365 0.96190664 0.93949532
C  -0.01402302 -0.31310432 1.31904489
C  -0.05617080 -0.35170171 1.30661597
C  -1.17320075 0.03201982 0.67631044
C  -1.19661079 -0.00244872 0.63530718
C  -1.21809315 0.03147978 0.59313562
C  -1.11662509 -0.33693063 -0.68974580
C  -1.10090309 -0.29724265 -0.73102285
C  -0.02648100 0.39444900 -1.29600107
C  -0.03818865 0.33931305 -1.31060361
C  -1.06654100 -0.32353906 -0.76977716
C  -1.05915644 -0.37959929 -0.75260309
C  -1.09123009 -0.38896685 -0.70455900
C  -0.60987805 -1.18140143 0.26112390
C  -0.61391069 -1.16436049 0.31706482
C  -0.56615738 -1.18248654 0.34516090
C  -0.03135391 -0.40266899 1.29315115
C  -0.11923216 0.99136512 0.91570888
C  0.03816371 -0.33931685 1.31062106
C  -0.86946878 0.98859820 -0.32273888
60
MD Step 9 Units = [eV / Ang.]
C  0.87687349 -0.94518634 0.28285461
C  0.86754321 -0.91401650 0.39058536
C  1.08366638 0.24393270 0.71147987
C  1.11263260 0.31963002 0.63307411
C  1.20525167 -0.01640909 -0.53710246
C  1.18553545 -0.12385173 -0.56649829
C  0.79500393 -1.01967854 0.26167538
C  0.73590523 -1.03502981 0.35635162
C  0.78170968 -0.97021357 0.43622129
C  0.05828524 -0.41610139 1.25063697
C  1.01733032 0.29451158 0.78606188
C  1.06399348 0.41814390 0.66053356
C  0.62492988 1.14089165 -0.22036223
C  0.63314272 1.10911856 -0.32719188
C  1.16459770 0.04926238 -0.61795712
C  1.11976795 -0.01633329 -0.69683148
C  1.13250671 -0.12265569 -0.66445577
C  0.25168916 -0.93638994 -0.89495316
C  0.22256211 -1.01188034 -0.81708491
C  -0.47362122 -1.19287765 0.30575204
C  -0.52606530 -1.19213515 0.20632375
C  0.11159637 -1.02632420 -0.82220816
C  0.07087600 -0.95958267 -0.90257367
C  0.15766855 -0.90357124 -0.94800972
C  0.01998452 0.25939807 -1.29421151
C  0.10075968 0.33367999 -1.27201379
C  0.05270307 0.43117429 -1.24551843
C  0.54011284 1.14278868 -0.38124547
C  1.00401178 0.40154410 0.75373910
C  -0.79491412 1.01967946 -0.26128941
C  -0.22290921 1.01183847 0.81694098
C  -0.25164999 0.93640554 0.89490255
C  -1.13247666 0.12264989 0.66446093
C  -1.18552387 0.12385571 0.56649651
C  -0.86759429 0.91398706 -0.39060543
C  -0.78172490 0.97018430 -0.43625688
C  -0.73585482 1.03502994 -0.35642807
C  0.47368680 1.19282871 -0.30573229
C  0.52611209 1.19213607 -0.20634851
C  -0.11152086 1.02633140 0.82220431
C  -0.15767203 0.90357143 0.94801251
C  -0.01999734 -0.25939736 1.29426282
C  -0.10082249 -0.33370172 1.27179943
C  -1.11971683 0.01631511 0.69688396
C  -1.16452088 -0.04931453 0.61792603
C  -1.20523874 0.01640054 0.53711987
C  -1.11268014 -0.31964538 -0.63307279
C  -1.08344395 -0.24392731 -0.71154992
C  -0.05827946 0.41610510 -1.25063118
C  -0.07937175 0.31013779 -1.27938728
C  -1.01738989 -0.29448640 -0.78604306
C  -1.00401210 -0.40152558 -0.75373802
C  -1.06399908 -0.41812692 -0.66055781
C  -0.62488365 -1.14090835 0.22031461
C  -0.63299200 -1.10912838 0.32760189
C  -0.54051361 -1.14255104 0.38092264
C  -0.05267788 -0.43120388 1.24560426
C  -0.07085894 0.95957896 0.90258945
C  0.07934649 -0.31014192 1.27940517
C  -0.87685906 0.94518452 -0.28287874
60
MD Step 10 Units = [eV / Ang.]
C  0.88258180 -0.90343918 0.24531735
C  0.86949519 -0.85855740 0.40074300
C  1.06591904 0.19389771 0.69237371
C  1.10745719 0.30308915 0.57938779
C  1.19164380 -0.00233136 -0.48416050
C  1.16311379 -0.15692796 -0.52662967
C  0.76480695 -1.01108026 0.21478690
C  0.67975444 -1.03318628 0.35136934
C  0.74534988 -0.93937802 0.46651677
C  0.08785126 -0.43573345 1.20665196
C  0.97014522 0.26702951 0.80016032
C  1.03717525 0.44475934 0.61862670
C  0.63807467 1.10160748 -0.18201461
C  0.65006084 1.05613296 -0.33660551
C  1.13311044 0.09289578 -0.60091206
C  1.06838591 -0.00166894 -0.71508261
C  1.08673671 -0.15544606 -0.66863341
C  0.28620871 -0.89503564 -0.87817667
C  0.24453302 -1.00401099 -0.76568990
C  -0.41957813 -1.17666364 0.30537211
C  -0.49533194 -1.17558935 0.16196763
C  0.08421003 -1.02490290 -0.77284709
C  0.02568164 -0.92865369 -0.88912871
C  0.15069738 -0.84797075 -0.95467232
C  0.02552490 0.20898114 -1.26936609
C  0.14226432 0.31644717 -1.23783088
C  0.07250068 0.45719080 -1.19952602
C  0.51551451 1.10401327 -0.41404184
C  0.95125264 0.42144188 0.75378103
C  -0.76473236 1.01107819 -0.21444326
C  -0.24484771 1.00397147 0.76557370
C  -0.28617513 0.89504711 0.87812746
C  -1.08670593 0.15544104 0.66863909
C  -1.16310197 0.15693007 0.52662830
C  -0.86954079 0.85853428 -0.40076164
C  -0.74536574 0.93935269 -0.46654605
C  -0.67970734 1.03318497 -0.35143616
C  0.41963160 1.17661805 -0.30535870
C  0.49537762 1.17558958 -0.16198586
C  -0.08414301 1.02490920 0.77284018
C  -0.15069964 0.84797118 0.95467439
C  -0.02553989 -0.20897967 1.26941497
C  -0.14231354 -0.31647127 1.23762724
C  -1.06834587 0.00165215 0.71512439
C  -1.13303602 -0.09293815 0.60088931
C  -1.19163081 0.00232200 0.48417497
C  -1.10750201 -0.30310126 -0.57938689
C  -1.06570815 -0.19389440 -0.69243529
C  -0.08784583 0.43573349 -1.20664844
C  -0.11765572 0.28252236 -1.24856203
C  -0.97019750 -0.26700611 -0.80014670
C  -0.95125069 -0.42142564 -0.75378059
C  -1.03717929 -0.44474698 -0.61864576
C  -0.63802997 -1.10162081 0.18197227
C  -0.64992722 -1.05614386 0.33698334
C  -0.51587746 -1.10378160 0.41374753
C  -0.07248580 -0.45722369 1.19959955
C  -0.02566888 0.92865278 0.88914278
C  0.11763130 -0.28252555 1.24857986
C  -0.88256638 0.90343806 -0.24533868
60
MD Step 11 Units = [eV / Ang.]
C  0.88652989 -0.86367986 0.21040674
C  0.87000618 -0.80624391 0.40949936
C  1.04800874 0.14755989 0.67376328
C  1.10105537 0.28741747 0.52911849
C  1.17735754 0.01062841 -0.43471600
C  1.14075690 -0.18713793 -0.48915623
C  0.73588182 -1.00167137 0.17131300
C  0.62706923 -1.02996079 0.34626375
C  0.71078153 -0.90960742 0.49371091
C  0.11493453 -0.45315894 1.16438284
C  0.92528155 0.24134043 0.81195190
C  1.01095810 0.46859751 0.57914013
C  0.64922943 1.06382127 -0.14644921
C  0.66467042 1.00580496 -0.34477277
C  1.10245421 0.13291719 -0.58433500
C  1.01951465 0.01183029 -0.73082216
C  1.04300290 -0.18539684 -0.67149042
C  0.31755737 -0.85564865 -0.86143690
C  0.26439349 -0.99528372 -0.71725275
C  -0.36921618 -1.16000088 0.30457004
C  -0.46631210 -1.15862223 0.12090286
C  0.05887958 -1.02207914 -0.72627175
C  -0.01595246 -0.89881293 -0.87543935
C  0.14405792 -0.79554275 -0.95939257
C  0.03058730 0.16226816 -1.24462052
C  0.18025382 0.30011774 -1.20453946
C  0.09061511 0.48046145 -1.15542011
C  0.49211137 1.06669062 -0.44361552
C  0.90128763 0.43913234 0.75270542
C  -0.73582228 1.00166586 -0.17100981
C  -0.26467800 0.99524644 0.71716244
C  -0.31752924 0.85565658 0.86138977
C  -1.04297118 0.18539267 0.67149658
C  -1.14074499 0.18713925 0.48915406
C  -0.87004642 0.80622695 -0.40951640
C  -0.71079850 0.90958555 -0.49373376
C  -0.62702440 1.02995904 -0.34632152
C  0.36925881 1.15995785 -0.30456229
C  0.46635721 1.15862132 -0.12091577
C  -0.05881988 1.02208479 0.72626228
C  -0.14405854 0.79554324 0.95939390
C  -0.03060332 -0.16226627 1.24466679
C  -0.18029031 -0.30014459 1.20434605
C  -1.01948467 -0.01184540 0.73085434
C  -1.10238221 -0.13295121 0.58431995
C  -1.17734415 -0.01063887 0.43472725
C  -1.10109847 -0.28742565 -0.52911736
C  -1.04780853 -0.14755835 -0.67381730
C  -0.11492866 0.45315663 -1.16438172
C  -0.15271774 0.25668712 -1.21834493
C  -0.92532737 -0.24131933 -0.81194327
C  -0.90128350 -0.43911802 -0.75270590
C  -1.01096029 -0.46858970 -0.57915426
C  -0.64918704 -1.06383115 0.14641228
C  -0.66455312 -1.00581674 0.34511992
C  -0.49243965 -1.06646515 0.44334748
C  -0.09060912 -0.48049603 1.15548320
C  0.01596052 0.89881457 0.87545166
C  0.15269297 -0.25669035 1.21836298
C  -0.88651378 0.86367858 -0.21042468
60
MD Step 12 Units = [eV / Ang.]
C  0.88869088 -0.82612502 0.17831547
C  0.86906830 -0.75736448 0.41680343
C  1.03002998 0.10517640 0.65574945
C  1.09345812 0.27270073 0.48254441
C  1.16246564 0.02239757 -0.38904492
C  1.11858418 -0.21431236 -0.45428298
C  0.70838792 -0.99149862 0.13149653
C  0.57813937 -1.02536687 0.34106226
C  0.67819467 -0.88106360 0.51764737
C  0.13938209 -0.46827761 1.12406127
C  0.88298555 0.21758749 0.82136711
C  0.98548311 0.48952295 0.54229161
C  0.65832837 1.02773886 -0.11386526
C  0.67688621 0.95841039 -0.35164573
C  1.07279434 0.16910203 -0.56831526
C  0.97342176 0.02408868 -0.74395890
C  1.00154476 -0.21233862 -0.67300633
C  0.34555630 -0.81844607 -0.84482315
C  0.28203108 -0.98574105 -0.67204216
C  -0.32281579 -1.14297534 0.30334937
C  -0.43916630 -1.14132177 0.08335835
C  0.03574606 -1.01786319 -0.68273866
C  -0.05379213 -0.87022331 -0.86157727
C  0.13778743 -0.74657773 -0.96213859
C  0.03514166 0.11952151 -1.22010730
C  0.21451481 0.28478245 -1.17231845
C  0.10694383 0.50085098 -1.11344217
C  0.47003271 1.03102512 -0.46979734
C  0.85439153 0.45451386 0.75051417
C  -0.70834152 0.99149046 -0.13123186
C  -0.28228743 0.98570649 0.67197551
C  -0.34553318 0.81845061 0.84477802
C  -1.00151276 0.21233575 0.67301241
C  -1.11857218 0.21431243 0.45428079
C  -0.86910347 0.75735321 -0.41681855
C  -0.67821222 0.88104539 -0.51766479
C  -0.57809846 1.02536364 -0.34111096
C  0.32284866 1.14293498 -0.30334719
C  0.43921009 1.14132078 -0.08336647
C  -0.03569314 1.01786766 0.68272764
C  -0.13778618 0.74657834 0.96213925
C  -0.03515872 -0.11951905 1.22015098
C  -0.21453994 -0.28481108 1.17213499
C  -0.97340122 -0.02410286 0.74398254
C  -1.07272496 -0.16912819 0.56830724
C  -1.16245192 -0.02240902 0.38905346
C  -1.09349877 -0.27270532 -0.48254388
C  -1.02984034 -0.10517715 -0.65579597
C  -0.13937598 0.46827314 -1.12406163
C  -0.18435911 0.23277638 -1.18889812
C  -0.88302547 -0.21756820 -0.82136282
C  -0.85438528 -0.45450152 -0.75051507
C  -0.98548417 -0.48951901 -0.54230142
C  -0.65828729 -1.02774575 0.11383441
C  -0.67678426 -0.95842330 0.35196267
C  -0.47032793 -1.03080591 0.46955418
C  -0.10694570 -0.50088804 1.11349507
C  0.05379604 0.87022693 0.86158822
C  0.18433453 -0.23277915 1.18891593
C  -0.88867414 0.82612397 -0.17833088
60
MD Step 13 Units = [eV / Ang.]
C  0.88907850 -0.79090781 0.14914489
C  0.86670504 -0.71208257 0.42264213
C  1.01206073 0.06687727 0.63840070
C  1.08471302 0.25898939 0.43981711
C  1.14704016 0.03294126 -0.34729179
C  1.09668810 -0.23837461 -0.42212628
C  0.68242375 -0.98061513 0.09546021