60
MD Step 0 Units = [Angstroms]
C  -2.96219017 2.11017017 -0.06479000
C  -2.84897017 1.69937017 -1.49226000
C  -3.10217017 0.34396017 -1.86797000
C  -3.47934017 -0.65812983 -0.83219000
C  -3.58792017 -0.26404983 0.53723000
C  -3.32398017 1.14884017 0.92888000
C  -1.88684017 3.10235017 0.21536000
C  -1.10906017 3.30478017 -1.03897000
C  -1.70372017 2.43771017 -2.09435000
C  -0.85822017 1.79058017 -3.04767000
C  -2.22085017 -0.33054983 -2.86170000
C  -2.83112017 -1.95198983 -1.18582000
C  -2.31780017 -2.79908983 -0.15561000
C  -2.43096017 -2.38825983 1.27184000
C  -3.05283017 -1.14705983 1.61109000
C  -2.45819017 -0.27993983 2.66641000
C  -2.62576017 1.13898017 2.24477000
C  -1.59421017 2.09085017 2.51357000
C  -1.21706017 3.09292017 1.47779000
C  0.30683983 3.48954017 -0.97986000
C  1.00499983 3.47969017 0.33609000
C  0.25885983 3.28550017 1.53942000
C  0.79389983 2.40243017 2.61326000
C  -0.35136017 1.66409017 3.21534000
C  -0.19060017 0.30286017 3.61984000
C  -1.26589017 -0.68932983 3.33964000
C  -0.61770017 -1.98316983 2.98605000
C  -1.18815017 -2.81504983 1.97364000
C  -2.05328017 -1.74948983 -2.44008000
C  1.88683983 -3.10234983 -0.21537000
C  1.21706983 -3.09291983 -1.47779000
C  1.59420983 -2.09084983 -2.51357000
C  2.62575983 -1.13897983 -2.24477000
C  3.32397983 -1.14883983 -0.92888000
C  2.84896983 -1.69936983 1.49226000
C  1.70371983 -2.43770983 2.09435000
C  1.10905983 -3.30477983 1.03897000
C  -0.30684017 -3.48953983 0.97986000
C  -1.00500017 -3.47968983 -0.33609000
C  -0.25886017 -3.28549983 -1.53942000
C  0.35135983 -1.66408983 -3.21534000
C  0.19059983 -0.30285983 -3.61984000
C  1.26588983 0.68933017 -3.33963000
C  2.45818983 0.27994017 -2.66641000
C  3.05282983 1.14706017 -1.61109000
C  3.58791983 0.26405017 -0.53723000
C  3.47933983 0.65813017 0.83219000
C  3.10215983 -0.34395983 1.86797000
C  0.85821983 -1.79057983 3.04767000
C  1.12219983 -0.37773983 3.43932000
C  2.22084983 0.33055017 2.86170000
C  2.05327983 1.74949017 2.44008000
C  2.83111983 1.95199017 1.18582000
C  2.31779983 2.79909017 0.15561000
C  2.43095983 2.38826017 -1.27185000
C  1.18815983 2.81504017 -1.97363000
C  0.61769983 1.98317017 -2.98605000
C  -0.79390017 -2.40242983 -2.61326000
C  -1.12220017 0.37774017 -3.43932000
C  2.96218983 -2.11016983 0.06479000
60
MD Step 1 Units = [Angstroms]
C  -2.96187618 2.10964499 -0.06453521
C  -2.84864511 1.69880349 -1.49214983
C  -3.10168544 0.34424875 -1.86762271
C  -3.47889335 -0.65794279 -0.83173796
C  -3.58740496 -0.26411101 0.53681767
C  -3.32343816 1.14892162 0.92850737
C  -1.88641761 3.10192565 0.21564312
C  -1.10855910 3.30437610 -1.03881393
C  -1.70327869 2.43721794 -2.09430083
C  -0.85831307 1.79049713 -3.04701899
C  -2.22027612 -0.33032976 -2.86145355
C  -2.83060763 -1.95193325 -1.18540336
C  -2.31761178 -2.79849922 -0.15584399
C  -2.43078334 -2.38762797 1.27175124
C  -3.05226085 -1.14721105 1.61078660
C  -2.45756049 -0.28000326 2.66621395
C  -2.62514748 1.13906096 2.24453150
C  -1.59424823 2.09032990 2.51316143
C  -1.21706047 3.09250149 1.47727634
C  0.30644756 3.48901955 -0.97974128
C  1.00467830 3.47916854 0.33634203
C  0.25900939 3.28510108 1.53891230
C  0.79410321 2.40194164 2.61286149
C  -0.35127253 1.66352694 3.21500246
C  -0.19061410 0.30315618 3.61924688
C  -1.26601333 -0.68913470 3.33901899
C  -0.61775714 -1.98310592 2.98539311
C  -1.18784717 -2.81446048 1.97362166
C  -2.05268950 -1.74941343 -2.43979114
C  1.88641737 -3.10192531 -0.21565281
C  1.21706988 -3.09250118 -1.47727650
C  1.59424794 -2.09032954 -2.51316145
C  2.62514715 -1.13906063 -2.24453150
C  3.32343783 -1.14892128 -0.92850737
C  2.84864474 -1.69880319 1.49214981
C  1.70327835 -2.43721763 2.09430079
C  1.10855879 -3.30437576 1.03881386
C  -0.30644782 -3.48901925 0.97974131
C  -1.00467862 -3.47916821 -0.33634206
C  -0.25900966 -3.28510074 -1.53891229
C  0.35127219 -1.66352660 -3.21500246
C  0.19061377 -0.30315584 -3.61924685
C  1.26601292 0.68913504 -3.33900911
C  2.45756022 0.28000358 -2.66621389
C  3.05226056 1.14721132 -1.61078664
C  3.58740463 0.26411135 -0.53681765
C  3.47889299 0.65794310 0.83173797
C  3.10167524 -0.34424841 1.86762266
C  0.85831274 -1.79049679 3.04701900
C  1.12231866 -0.37751325 3.43870924
C  2.22027574 0.33033011 2.86145358
C  2.05268915 1.74941378 2.43979114
C  2.83060729 1.95193361 1.18540333
C  2.31761147 2.79849953 0.15584394
C  2.43078313 2.38762831 -1.27176095
C  1.18785654 2.81445092 -1.97361190
C  0.61775686 1.98310626 -2.98539303
C  -0.79410352 -2.40194132 -2.61286148
C  -1.12231900 0.37751358 -3.43870924
C  2.96187585 -2.10964466 0.06453518
60
MD Step 2 Units = [Angstroms]
C  -2.96146412 2.10897656 -0.06421790
C  -2.84822013 1.69808644 -1.49200194
C  -3.10106007 0.34460508 -1.86717725
C  -3.47831234 -0.65770540 -0.83116980
C  -3.58673813 -0.26418514 0.53630103
C  -3.32273993 1.14901451 0.92803723
C  -1.88587840 3.10137515 0.21599361
C  -1.10792795 3.30384954 -1.03861228
C  -1.70271728 2.43658807 -2.09422440
C  -0.85842234 1.79038082 -3.04618723
C  -2.21954611 -0.33005370 -2.86112622
C  -2.82994964 -1.95184864 -1.18487663
C  -2.31736060 -2.79774438 -0.15613380
C  -2.43054573 -2.38682486 1.27163159
C  -3.05153065 -1.14739070 1.61039756
C  -2.45675957 -0.28008010 2.66595071
C  -2.62436647 1.13915310 2.24421856
C  -1.59428391 2.08966770 2.51263504
C  -1.21705197 3.09195829 1.47662683
C  0.30595752 3.48834671 -0.97958650
C  1.00427116 3.47849453 0.33665296
C  0.25919346 3.28458085 1.53826976
C  0.79435030 2.40131665 2.61234689
C  -0.35116100 1.66281444 3.21455927
C  -0.19063005 0.30352204 3.61848293
C  -1.26615725 -0.68888704 3.33822241
C  -0.61782347 -1.98301198 2.98455451
C  -1.18746172 -2.81370707 1.97358445
C  -2.05194004 -1.74930566 -2.43941416
C  1.88587827 -3.10137478 -0.21600290
C  1.21706106 -3.09195801 -1.47662719
C  1.59428367 -2.08966731 -2.51263510
C  2.62436615 -1.13915279 -2.24421856
C  3.32273961 -1.14901416 -0.92803723
C  2.84821970 -1.69808619 1.49200191
C  1.70271695 -2.43658779 2.09422431
C  1.10792768 -3.30384919 1.03861213
C  -0.30595769 -3.48834644 0.97958658
C  -1.00427145 -3.47849418 -0.33665303
C  -0.25919366 -3.28458050 -1.53826973
C  0.35116065 -1.66281411 -3.21455926
C  0.19062972 -0.30352171 -3.61848286
C  1.26615674 0.68888737 -3.33821269
C  2.45675938 0.28008040 -2.66595058
C  3.05153040 1.14739091 -1.61039766
C  3.58673781 0.26418548 -0.53630098
C  3.47831195 0.65770568 0.83116981
C  3.10105003 -0.34460472 1.86717712
C  0.85842200 -1.79038045 3.04618726
C  1.12245822 -0.37722874 3.43792469
C  2.21954566 0.33005407 2.86112629
C  2.05193969 1.74930603 2.43941416
C  2.82994929 1.95184902 1.18487656
C  2.31736033 2.79774467 0.15613371
C  2.43054568 2.38682519 -1.27164095
C  1.18747072 2.81369767 -1.97357497
C  0.61782325 1.98301231 -2.98455433
C  -0.79435058 -2.40131634 -2.61234685
C  -1.12245857 0.37722907 -3.43792468
C  2.96146379 -2.10897623 0.06421785
60
MD Step 3 Units = [Angstroms]
C  -2.96096922 2.10819963 -0.06385810
C  -2.84771170 1.69725843 -1.49182020
C  -3.10032237 0.34500515 -1.86665505
C  -3.47762125 -0.65743034 -0.83051867
C  -3.58594884 -0.26426651 0.53571102
C  -3.32191762 1.14910864 0.92749612
C  -1.88524991 3.10072220 0.21638829
C  -1.10720285 3.30322175 -1.03837404
C  -1.70206542 2.43585165 -2.09411775
C  -0.85853779 1.79023197 -3.04521643
C  -2.21869842 -0.32973803 -2.86072823
C  -2.82917760 -1.95173409 -1.18426897
C  -2.31705403 -2.79686303 -0.15646038
C  -2.43025342 -2.38589284 1.27148394
C  -3.05067477 -1.14758306 1.60994170
C  -2.45582936 -0.28016439 2.66562714
C  -2.62345716 1.13924648 2.24384279
C  -1.59430900 2.08889802 2.51201505
C  -1.21703067 3.09131371 1.47587740
C  0.30539985 3.48755157 -0.97940189
C  1.00380062 3.47769814 0.33700169
C  0.25939935 3.28396040 1.53752761
C  0.79462239 2.40058610 2.61173926
C  -0.35103136 1.66199195 3.21402671
C  -0.19064627 0.30393330 3.61758337
C  -1.26630801 -0.68860007 3.33728865
C  -0.61789261 -1.98288660 2.98357655
C  -1.18701398 -2.81282719 1.97352336
C  -2.05107197 -1.74916688 -2.43896401
C  1.88524991 -3.10072182 -0.21639714
C  1.21703939 -3.09131347 -1.47587798
C  1.59430881 -2.08889760 -2.51201514
C  2.62345685 -1.13924618 -2.24384279
C  3.32191730 -1.14910828 -0.92749612
C  2.84771121 -1.69725823 1.49182015
C  1.70206508 -2.43585141 2.09411760
C  1.10720262 -3.30322140 1.03837379
C  -0.30539992 -3.48755134 0.97940201
C  -1.00380088 -3.47769780 -0.33700181
C  -0.25939946 -3.28396005 -1.53752757
C  0.35103100 -1.66199162 -3.21402670
C  0.19064595 -0.30393297 -3.61758326
C  1.26630740 0.68860041 -3.33727911
C  2.45582925 0.28016469 -2.66562691
C  3.05067457 1.14758319 -1.60994186
C  3.58594852 0.26426685 -0.53571095
C  3.47762082 0.65743060 0.83051867
C  3.10031252 -0.34500477 1.86665484
C  0.85853746 -1.79023159 3.04521647
C  1.12260541 -0.37690306 3.43700358
C  2.21869791 0.32973842 2.86072833
C  2.05107161 1.74916727 2.43896403
C  2.82917724 1.95173451 1.18426887
C  2.31705379 2.79686329 0.15646023
C  2.43025355 2.38589317 -1.27149290
C  1.18702256 2.81281795 -1.97351423
C  0.61789246 1.98288693 -2.98357626
C  -0.79462263 -2.40058581 -2.61173922
C  -1.12260578 0.37690338 -3.43700356
C  2.96096890 -2.10819930 0.06385802
60
MD Step 4 Units = [Angstroms]
C  -2.96040399 2.10734301 -0.06347242
C  -2.84713339 1.69635215 -1.49160775
C  -3.09949576 0.34542895 -1.86607387
C  -3.47683991 -0.65712815 -0.82981209
C  -3.58506114 -0.26435034 0.53507338
C  -3.32099778 1.14919543 0.92690606
C  -1.88455480 3.09998623 0.21680787
C  -1.10641380 3.30251025 -1.03810662
C  -1.70134750 2.43503441 -2.09397834
C  -0.85865093 1.79005112 -3.04414110
C  -2.21776479 -0.32939636 -2.86026791
C  -2.82831749 -1.95158793 -1.18360460
C  -2.31669806 -2.79588641 -0.15680784
C  -2.42991137 -2.38486700 1.27131064
C  -3.04972233 -1.14777496 1.60943457
C  -2.45480459 -0.28025119 2.66524878
C  -2.62245273 1.13933260 2.24341371
C  -1.59431655 2.08804940 2.51132144
C  -1.21699317 3.09058680 1.47505785
C  0.30479958 3.48665881 -0.97919256
C  1.00328514 3.47680417 0.33737066
C  0.25961646 3.28325699 1.53671509
C  0.79490384 2.39977559 2.61105769
C  -0.35088843 1.66109201 3.21341816
C  -0.19066133 0.30436956 3.61657732
C  -1.26645399 -0.68828477 3.33624943
C  -0.61795910 -1.98272851 2.98249432
C  -1.18652065 -2.81185191 1.97343415
C  -2.05011858 -1.74899729 -2.43845302
C  1.88455494 -3.09998583 -0.21681625
C  1.21700149 -3.09058659 -1.47505867
C  1.59431642 -2.08804895 -2.51132158
C  2.62245243 -1.13933231 -2.24341371
C  3.32099747 -1.14919507 -0.92690605
C  2.84713283 -1.69635201 1.49160767
C  1.70134716 -2.43503421 2.09397813
C  1.10641362 -3.30250990 1.03810627
C  -0.30479954 -3.48665863 0.97919273
C  -1.00328536 -3.47680382 -0.33737084
C  -0.25961647 -3.28325662 -1.53671504
C  0.35088806 -1.66109169 -3.21341814
C  0.19066100 -0.30436924 -3.61657717
C  1.26645327 0.68828511 -3.33624009
C  2.45480458 0.28025147 -2.66524846
C  3.04972218 1.14777501 -1.60943480
C  3.58506083 0.26435068 -0.53507328
C  3.47683944 0.65712837 0.82981209
C  3.09948611 -0.34542856 1.86607357
C  0.85865059 -1.79005072 3.04414117
C  1.12274929 -0.37655011 3.43597669
C  2.21776420 0.32939678 2.86026805
C  2.05011821 1.74899770 2.43845304
C  2.82831712 1.95158839 1.18360446
C  2.31669786 2.79588664 0.15680763
C  2.42991169 2.38486732 -1.27131916
C  1.18652877 2.81184286 -1.97342537
C  0.61795902 1.98272884 -2.98249391
C  -0.79490405 -2.39977531 -2.61105762
C  -1.12274967 0.37655043 -3.43597665
C  2.96040366 -2.10734269 0.06347231
60
MD Step 5 Units = [Angstroms]
C  -2.95977878 2.10643044 -0.06307454
C  -2.84649642 1.69539449 -1.49136721
C  -3.09859953 0.34586007 -1.86544833
C  -3.47598473 -0.65680748 -0.82907268
C  -3.58409491 -0.26443272 0.53440924
C  -3.32000233 1.14926791 0.92628514
C  -1.88381173 3.09918330 0.21723656
C  -1.10558547 3.30172953 -1.03781616
C  -1.70058364 2.43415755 -2.09380411
C  -0.85875480 1.78983875 -3.04298970
C  -2.21677134 -0.32903988 -2.85975221
C  -2.82739074 -1.95140885 -1.18290343
C  -2.31629771 -2.79484022 -0.15716317
C  -2.42952370 -2.38377621 1.27111365
C  -3.04869732 -1.14795564 1.60888900
C  -2.45371387 -0.28033643 2.66482028
C  -2.62138048 1.13940454 2.24293922
C  -1.59430093 2.08714534 2.51057073
C  -1.21693673 3.08979330 1.47419270
C  0.30417727 3.48568881 -0.97896275
C  1.00273986 3.47583309 0.33774547
C  0.25983610 3.28248485 1.53585625
C  0.79518187 2.39890618 2.61031789
C  -0.35073617 1.66014143 3.21274468
C  -0.19067404 0.30481413 3.61548879
C  -1.26658568 -0.68795017 3.33513091
C  -0.61801846 -1.98253673 2.98133672
C  -1.18599548 -2.81080685 1.97331336
C  -2.04910728 -1.74879711 -2.43789137
C  1.88381201 -3.09918288 -0.21724443
C  1.21694464 -3.08979314 -1.47419376
C  1.59430087 -2.08714486 -2.51057091
C  2.62138019 -1.13940426 -2.24293922
C  3.32000203 -1.14926754 -0.92628513
C  2.84649580 -1.69539440 1.49136711
C  1.70058330 -2.43415740 2.09380384
C  1.10558534 -3.30172917 1.03781570
C  -0.30417711 -3.48568868 0.97896297
C  -1.00274005 -3.47583273 -0.33774569
C  -0.25983602 -3.28248448 -1.53585619
C  0.35073578 -1.66014110 -3.21274466
C  0.19067372 -0.30481381 -3.61548859
C  1.26658484 0.68795050 -3.33512179
C  2.45371396 0.28033669 -2.66481987
C  3.04869724 1.14795561 -1.60888930
C  3.58409461 0.26443307 -0.53440911
C  3.47598421 0.65680767 0.82907269
C  3.09859010 -0.34585967 1.86544794
C  0.85875445 -1.78983833 3.04298978
C  1.12288089 -0.37618132 3.43486940
C  2.21677067 0.32904033 2.85975239
C  2.04910689 1.74879754 2.43789139
C  2.82739035 1.95140934 1.18290324
C  2.31629755 2.79484042 0.15716289
C  2.42952422 2.38377654 -1.27112170
C  1.18600311 2.81079800 -1.97330497
C  0.61801845 1.98253705 -2.98133619
C  -0.79518205 -2.39890593 -2.61031780
C  -1.12288129 0.37618164 -3.43486935
C  2.95977847 -2.10643012 0.06307440
60
MD Step 6 Units = [Angstroms]
C  -2.95910231 2.10548130 -0.06267549
C  -2.84581017 1.69440736 -1.49110087
C  -3.09764961 0.34628532 -1.86479045
C  -3.47506934 -0.65647538 -0.82831882
C  -3.58306658 -0.26451053 0.53373571
C  -3.31894932 1.14932056 0.92564810
C  -1.88303597 3.09832669 0.21766158
C  -1.10473790 3.30089163 -1.03750771
C  -1.69979024 2.43323846 -2.09359367
C  -0.85884387 1.78959544 -3.04178551
C  -2.21573941 -0.32867766 -2.85918704
C  -2.82641494 -1.95119600 -1.18218167
C  -2.31585728 -2.79374556 -0.15751586
C  -2.42909402 -2.38264408 1.27089468
C  -3.04761946 -1.14811655 1.60831551
C  -2.45258058 -0.28041686 2.66434569
C  -2.62026275 1.13945683 2.24242593
C  -1.59425776 2.08620505 2.50977651
C  -1.21685927 3.08894629 1.47330191
C  0.30354955 3.48465844 -0.97871599
C  1.00217716 3.47480178 0.33811450
C  0.26005130 3.28165587 1.53497070
C  0.79544623 2.39799518 2.60953286
C  -0.35057781 1.65916200 3.21201559
C  -0.19068347 0.30525353 3.61433757
C  -1.26669554 -0.68760363 3.33395460
C  -0.61806715 -1.98231068 2.98012740
C  -1.18544969 -2.80971300 1.97315846
C  -2.04806041 -1.74856670 -2.43728754
C  1.88303640 -3.09832625 -0.21766895
C  1.21686676 -3.08894617 -1.47330320
C  1.59425776 -2.08620454 -2.50977674
C  2.62026248 -1.13945656 -2.24242594
C  3.31894903 -1.14932018 -0.92564809
C  2.84580948 -1.69440732 1.49110074
C  1.69978990 -2.43323835 2.09359334
C  1.10473781 -3.30089127 1.03750715
C  -0.30354929 -3.48465835 0.97871626
C  -1.00217731 -3.47480142 -0.33811478
C  -0.26005112 -3.28165549 -1.53497062
C  0.35057741 -1.65916168 -3.21201555
C  0.19068314 -0.30525322 -3.61433732
C  1.26669459 0.68760396 -3.33394569
C  2.45258076 0.28041710 -2.66434518
C  3.04761945 1.14811643 -1.60831588
C  3.58306629 0.26451087 -0.53373555
C  3.47506878 0.65647554 0.82831883
C  3.09764042 -0.34628490 1.86478997
C  0.85884352 -1.78959501 3.04178560
C  1.12299311 -0.37580597 3.43370259
C  2.21573865 0.32867814 2.85918727
C  2.04806001 1.74856717 2.43728757
C  2.82641454 1.95119652 1.18218144
C  2.31585717 2.79374573 0.15751552
C  2.42909474 2.38264440 -1.27090226
C  1.18545684 2.80970437 -1.97315046
C  0.61806721 1.98231099 -2.98012675
C  -0.79544637 -2.39799494 -2.60953275
C  -1.12299354 0.37580628 -3.43370253
C  2.95910200 -2.10548098 0.06267531
60
MD Step 7 Units = [Angstroms]
C  -2.95838196 2.10451128 -0.06228401
C  -2.84508254 1.69340835 -1.49081077
C  -3.09665916 0.34669430 -1.86411006
C  -3.47410512 -0.65613756 -0.82756517
C  -3.58198977 -0.26458133 0.53306644
C  -3.31785361 1.14934920 0.92500673
C  -1.88223995 3.09742745 0.21807288
C  -1.10388711 3.30000668 -1.03718546
C  -1.69898059 2.43229132 -2.09334626
C  -0.85891392 1.78932198 -3.04054749
C  -2.21468624 -0.32831692 -2.85857758
C  -2.82540452 -1.95094904 -1.18145234
C  -2.31538057 -2.79261957 -0.15785763
C  -2.42862559 -2.38148965 1.27065532
C  -3.04650487 -1.14825109 1.60772273
C  -2.45142361 -0.28048996 2.66382865
C  -2.61911766 1.13948533 2.24187948
C  -1.59418386 2.08524407 2.50894998
C  -1.21675936 3.08805661 1.47240151
C  0.30292965 3.48358159 -0.97845524
C  1.00160697 3.47372422 0.33846865
C  0.26025657 3.28078000 1.53407417
C  0.79568894 2.39705667 2.60871332
C  -0.35041597 1.65817128 3.21123878
C  -0.19068892 0.30567717 3.61313994
C  -1.26677782 -0.68725110 3.33273805
C  -0.61810247 -1.98205025 2.97888560
C  -1.18489239 -2.80858746 1.97296776
C  -2.04699602 -1.74830667 -2.43664868
C  1.88224051 -3.09742700 -0.21807976
C  1.21676642 -3.08805654 -1.47240304
C  1.59418392 -2.08524353 -2.50895025
C  2.61911741 -1.13948507 -2.24187948
C  3.31785333 -1.14934882 -0.92500672
C  2.84508179 -1.69340837 1.49081061
C  1.69898024 -2.43229124 2.09334587
C  1.10388708 -3.30000631 1.03718479
C  -0.30292928 -3.48358156 0.97845555
C  -1.00160708 -3.47372385 -0.33846897
C  -0.26025630 -3.28077961 -1.53407409
C  0.35041556 -1.65817095 -3.21123874
C  0.19068859 -0.30567686 -3.61313963
C  1.26677676 0.68725142 -3.33272937
C  2.45142388 0.28049018 -2.66382806
C  3.04650494 1.14825089 -1.60772316
C  3.58198949 0.26458167 -0.53306625
C  3.47410451 0.65613768 0.82756518
C  3.09665020 -0.34669386 1.86410949
C  0.85891357 -1.78932154 3.04054760
C  1.12308053 -0.37543144 3.43249335
C  2.21468541 0.32831742 2.85857784
C  2.04699561 1.74830715 2.43664871
C  2.82540411 1.95094960 1.18145207
C  2.31538051 2.79261971 0.15785722
C  2.42862651 2.38148997 -1.27066242
C  1.18489905 2.80857905 -1.97296014
C  0.61810259 1.98205055 -2.97888483
C  -0.79568905 -2.39705644 -2.60871319
C  -1.12308097 0.37543174 -3.43249328
C  2.95838166 -2.10451097 0.06228379
60
MD Step 8 Units = [Angstroms]
C  -2.95762407 2.10353295 -0.06190685
C  -2.84432026 1.69241145 -1.49049884
C  -3.09563896 0.34707907 -1.86341515
C  -3.47310162 -0.65579855 -0.82682322
C  -3.58087578 -0.26464331 0.53241205
C  -3.31672739 1.14935089 0.92437035
C  -1.88143364 3.09649480 0.21846278
C  -1.10304572 3.29908318 -1.03685286
C  -1.69816530 2.43132758 -2.09306174
C  -0.85896188 1.78901936 -3.03929092
C  -2.21362565 -0.32796330 -2.85792845
C  -2.82437120 -1.95066814 -1.18072575
C  -2.31487102 -2.79147610 -0.15818214
C  -2.42812148 -2.38032816 1.27039707
C  -3.04536666 -1.14835445 1.60711764
C  -2.45025810 -0.28055385 2.66327259
C  -2.61795977 1.13948711 2.24130469
C  -1.59407712 2.08427486 2.50810030
C  -1.21663614 3.08713333 1.47150420
C  0.30232781 3.48246978 -0.97818299
C  1.00103719 3.47261195 0.33880096
C  0.26044775 3.27986564 1.53317918
C  0.79590405 2.39610203 2.60786812
C  -0.35025274 1.65718314 3.21042106
C  -0.19068988 0.30607694 3.61190924
C  -1.26682837 -0.68689731 3.33149556
C  -0.61812247 -1.98175579 2.97762680
C  -1.18433083 -2.80744403 1.97274039
C  -2.04592844 -1.74801785 -2.43598083
C  1.88143433 -3.09649434 -0.21846918
C  1.21664279 -3.08713330 -1.47150595
C  1.59407724 -2.08427429 -2.50810063
C  2.61795954 -1.13948686 -2.24130469
C  3.31672712 -1.14935050 -0.92437034
C  2.84431944 -1.69241151 1.49049867
C  1.69816494 -2.43132754 2.09306130
C  1.10304574 -3.29908281 1.03685209
C  -0.30232735 -3.48246980 0.97818334
C  -1.00103726 -3.47261158 -0.33880133
C  -0.26044739 -3.27986524 -1.53317909
C  0.35025233 -1.65718282 -3.21042102
C  0.19068954 -0.30607663 -3.61190888
C  1.26682721 0.68689762 -3.33148710
C  2.45025845 0.28055405 -2.66327191
C  3.04536680 1.14835418 -1.60711813
C  3.58087550 0.26464365 -0.53241183
C  3.47310096 0.65579865 0.82682323
C  3.09563024 -0.34707862 1.86341449
C  0.85896154 -1.78901890 3.03929104
C  1.12313919 -0.37506353 3.43125563
C  2.21362474 0.32796383 2.85792875
C  2.04592802 1.74801836 2.43598086
C  2.82437078 1.95066873 1.18072544
C  2.31487100 2.79147621 0.15818167
C  2.42812259 2.38032847 -1.27040370
C  1.18433702 2.80743585 -1.97273316
C  0.61812265 1.98175607 -2.97762592
C  -0.79590412 -2.39610182 -2.60786797
C  -1.12313966 0.37506383 -3.43125554
C  2.95762378 -2.10353264 0.06190660
60
MD Step 9 Units = [Angstroms]
C  -2.95683420 2.10255624 -0.06154905
C  -2.84352912 1.69142747 -1.49016693
C  -3.09459793 0.34743384 -1.86271217
C  -3.47206689 -0.65546192 -0.82610174
C  -3.57973398 -0.26469520 0.53178060
C  -3.31558064 1.14932374 0.92374612
C  -1.88062498 3.09553643 0.21882561
C  -1.10222342 3.29812839 -1.03651276
C  -1.69735272 2.43035644 -2.09274062
C  -0.85898573 1.78868880 -3.03802801
C  -2.21256850 -0.32762110 -2.85724387
C  -2.82332449 -1.95035399 -1.18000988
C  -2.31433183 -2.79032621 -0.15848470
C  -2.42758463 -2.37917159 1.27012139
C  -3.04421541 -1.14842338 1.60650588
C  -2.44909595 -0.28060720 2.66268077
C  -2.61680061 1.13946030 2.24070576
C  -1.59393642 2.08330725 2.50723502
C  -1.21648934 3.08618402 1.47061983
C  0.30175175 3.48133252 -0.97790137
C  1.00047397 3.47147451 0.33910636
C  0.26062182 3.27891994 1.53229543
C  0.79608733 2.39514041 2.60700455
C  -0.35008980 1.65620839 3.20956839
C  -0.19068603 0.30644690 3.61065641
C  -1.26684446 -0.68654598 3.33023866
C  -0.61812589 -1.98142811 2.97636333
C  -1.18377076 -2.80629373 1.97247627
C  -2.04486893 -1.74770135 -2.43528914
C  1.88062580 -3.09553596 -0.21883153
C  1.21649559 -3.08618404 -1.47062178
C  1.59393658 -2.08330666 -2.50723539
C  2.61680040 -1.13946006 -2.24070577
C  3.31558037 -1.14932334 -0.92374612
C  2.84352824 -1.69142758 1.49016673
C  1.69735235 -2.43035644 2.09274012
C  1.10222349 -3.29812802 1.03651190
C  -0.30175119 -3.48133260 0.97790176
C  -1.00047399 -3.47147414 -0.33910676
C  -0.26062136 -3.27891953 -1.53229533
C  0.35008938 -1.65620806 -3.20956835
C  0.19068569 -0.30644659 -3.61065599
C  1.26684321 0.68654628 -3.33023043
C  2.44909638 0.28060738 -2.66268002
C  3.04421562 1.14842304 -1.60650642
C  3.57973372 0.26469553 -0.53178036
C  3.47206618 0.65546200 0.82610175
C  3.09458944 -0.34743338 1.86271142
C  0.85898539 -1.78868833 3.03802815
C  1.12316650 -0.37470663 3.43000075
C  2.21256751 0.32762166 2.85724420
C  2.04486851 1.74770189 2.43528917
C  2.82332406 1.95035461 1.18000954
C  2.31433186 2.79032630 0.15848417
C  2.42758591 2.37917189 -1.27012756
C  1.18377649 2.80628578 -1.97246940
C  0.61812612 1.98142837 -2.97636234
C  -0.79608737 -2.39514020 -2.60700438
C  -1.12316699 0.37470693 -3.43000065
C  2.95683391 -2.10255593 0.06154877
60
MD Step 10 Units = [Angstroms]
C  -2.95601722 2.10158885 -0.06121418
C  -2.84271414 1.69046465 -1.48981682
C  -3.09354335 0.34775462 -1.86200630
C  -3.47100776 -0.65513039 -0.82540720
C  -3.57857219 -0.26473618 0.53117796
C  -3.31442148 1.14926680 0.92313943
C  -1.87982021 3.09455880 0.21915743
C  -1.10142739 3.29714851 -1.03616752
C  -1.69654933 2.42938520 -2.09238393
C  -0.85898429 1.78833177 -3.03676838
C  -2.21152319 -0.32729345 -2.85652777
C  -2.82227205 -1.95000769 -1.17931077
C  -2.31376603 -2.78917863 -0.15876207
C  -2.42701791 -2.37802917 1.26982974
C  -3.04305959 -1.14845594 1.60589197
C  -2.44794639 -0.28064917 2.66205638
C  -2.61564919 1.13940397 2.24008642
C  -1.59376148 2.08234887 2.50636025
C  -1.21631915 3.08521507 1.46975582
C  0.30120700 3.48017769 -0.97761221
C  0.99992196 3.47031977 0.33938137
C  0.26077671 3.27794904 1.53143027
C  0.79623607 2.39417903 2.60612863
C  -0.34992841 1.65525516 3.20868603
C  -0.19067721 0.30678296 3.60939033
C  -1.26682458 -0.68619994 3.32897661
C  -0.61811202 -1.98106842 2.97510489
C  -1.18321662 -2.80514528 1.97217598
C  -2.04382608 -1.74735854 -2.43457807
C  1.87982113 -3.09455832 -0.21916291
C  1.21632502 -3.08521513 -1.46975796
C  1.59376170 -2.08234825 -2.50636067
C  2.61564901 -1.13940374 -2.24008642
C  3.31442123 -1.14926640 -0.92313942
C  2.84271320 -1.69046480 1.48981659
C  1.69654895 -2.42938524 2.09238339
C  1.10142751 -3.29714814 1.03616657
C  -0.30120636 -3.48017781 0.97761263
C  -0.99992194 -3.47031940 -0.33938181
C  -0.26077617 -3.27794862 -1.53143017
C  0.34992799 -1.65525484 -3.20868597
C  0.19067686 -0.30678266 -3.60938986
C  1.26682324 0.68620022 -3.32896860
C  2.44794689 0.28064933 -2.66205556
C  3.04305988 1.14845553 -1.60589255
C  3.57857194 0.26473651 -0.53117769
C  3.47100700 0.65513045 0.82540720
C  3.09353509 -0.34775415 1.86200547
C  0.85898396 -1.78833129 3.03676852
C  1.12316096 -0.37436400 3.42873782
C  2.21152213 0.32729403 2.85652812
C  2.04382566 1.74735910 2.43457811
C  2.82227161 1.95000833 1.17931040
C  2.31376611 2.78917870 0.15876148
C  2.42701937 2.37802946 -1.26983547
C  1.18322190 2.80513757 -1.97216947
C  0.61811230 1.98106867 -2.97510379
C  -0.79623609 -2.39417883 -2.60612844
C  -1.12316148 0.37436429 -3.42873770
C  2.95601695 -2.10158854 0.06121387
60
MD Step 11 Units = [Angstroms]
C  -2.95517749 2.10063662 -0.06090459
C  -2.84187971 1.68952899 -1.48945027
C  -3.09248121 0.34803897 -1.86130163
C  -3.46993005 -0.65480600 -0.82474411
C  -3.57739691 -0.26476585 0.53060813
C  -3.31325654 1.14917992 0.92255411
C  -1.87902411 3.09356735 0.21945579
C  -1.10066275 3.29614890 -1.03581909
C  -1.69575999 2.42841957 -2.09199318
C  -0.85895717 1.78794993 -3.03551948
C  -2.21049605 -0.32698251 -2.85578384
C  -2.82121996 -1.94963075 -1.17863280
C  -2.31317650 -2.78804015 -0.15901221
C  -2.42642417 -2.37690785 1.26952358
C  -3.04190592 -1.14845134 1.60527948
C  -2.44681638 -0.28067933 2.66140255
C  -2.61451242 1.13931796 2.23944997
C  -1.59355278 2.08140550 2.50548099
C  -1.21612620 3.08423185 1.46891760
C  0.30069729 3.47901177 -0.97731708
C  0.99938460 3.46915425 0.33962388
C  0.26091122 3.27695824 1.53058911
C  0.79634883 2.39322355 2.60524530
C  -0.34976956 1.65432942 3.20777866
C  -0.19066339 0.30708260 3.60811824
C  -1.26676825 -0.68586131 3.32771674
C  -0.61808068 -1.98067834 2.97385895
C  -1.18267175 -2.80400548 1.97184069
C  -2.04280631 -1.74699101 -2.43385148
C  1.87902514 -3.09356686 -0.21946086
C  1.21613169 -3.08423195 -1.46891990
C  1.59355304 -2.08140487 -2.50548147
C  2.61451226 -1.13931774 -2.23944997
C  3.31325630 -1.14917951 -0.92255410
C  2.84187872 -1.68952917 1.48945002
C  1.69575959 -2.42841964 2.09199260
C  1.10066292 -3.29614852 1.03581805
C  -0.30069657 -3.47901195 0.97731752
C  -0.99938453 -3.46915387 -0.33962435
C  -0.26091060 -3.27695781 -1.53058901
C  0.34976913 -1.65432910 -3.20777861
C  0.19066303 -0.30708229 -3.60811772
C  1.26676683 0.68586158 -3.32770895
C  2.44681694 0.28067948 -2.66140167
C  3.04190628 1.14845088 -1.60528011
C  3.57739667 0.26476617 -0.53060784
C  3.46992925 0.65480603 0.82474412
C  3.09247317 -0.34803849 1.86130072
C  0.85895684 -1.78794945 3.03551964
C  1.12312209 -0.37403786 3.42747414
C  2.21049494 0.32698312 2.85578422
C  2.04280588 1.74699158 2.43385152
C  2.82121951 1.94963141 1.17863240
C  2.31317662 2.78804020 0.15901157
C  2.42642579 2.37690813 -1.26952887
C  1.18267661 2.80399800 -1.97183452
C  0.61808099 1.98067855 -2.97385776
C  -0.79634883 -2.39322336 -2.60524509
C  -1.12312263 0.37403815 -3.42747401
C  2.95517724 -2.10063631 0.06090426
60
MD Step 12 Units = [Angstroms]
C  -2.95431896 2.09970384 -0.06062160
C  -2.84102974 1.68862465 -1.48906902
C  -3.09141639 0.34828573 -1.86060138
C  -3.46883878 -0.65449019 -0.82411539
C  -3.57621356 -0.26478409 0.53007359
C  -3.31209116 1.14906362 0.92199277
C  -1.87824030 3.09256665 0.21971946
C  -1.09993287 3.29513419 -1.03546906
C  -1.69498826 2.42746394 -2.09157030
C  -0.85890459 1.78754513 -3.03428699
C  -2.20949173 -0.32668963 -2.85501560
C  -2.82017303 -1.94922502 -1.17797898
C  -2.31256603 -2.78691594 -0.15923407
C  -2.42580623 -2.37581267 1.26920435
C  -3.04075968 -1.14840977 1.60467121
C  -2.44571102 -0.28069760 2.66072240
C  -2.61339543 1.13920278 2.23879939
C  -1.59331141 2.08048140 2.50460128
C  -1.21591144 3.08323891 1.46810888
C  0.30022479 3.47784015 -0.97701736
C  0.99886429 3.46798331 0.33983291
C  0.26102481 3.27595213 1.52977569
C  0.79642524 2.39227832 2.60435863
C  -0.34961396 1.65343530 3.20685056
C  -0.19064466 0.30734458 3.60684598
C  -1.26667587 -0.68553163 3.32646480
C  -0.61803207 -1.98025974 2.97263116
C  -1.18213861 -2.80287949 1.97147208
C  -2.04181418 -1.74660051 -2.43311276
C  1.87824142 -3.09256616 -0.21972415
C  1.21591659 -3.08323905 -1.46811133
C  1.59331171 -2.08048075 -2.50460180
C  2.61339530 -1.13920257 -2.23879938
C  3.31209094 -1.14906321 -0.92199276
C  2.84102870 -1.68862486 1.48906875
C  1.69498785 -2.42746404 2.09156968
C  1.09993309 -3.29513382 1.03546795
C  -0.30022401 -3.47784038 0.97701782
C  -0.99886418 -3.46798293 -0.33983341
C  -0.26102411 -3.27595169 -1.52977559
C  0.34961353 -1.65343497 -3.20685050
C  0.19064428 -0.30734427 -3.60684541
C  1.26667439 0.68553187 -3.32645722
C  2.44571163 0.28069772 -2.66072146
C  3.04076011 1.14840925 -1.60467187
C  3.57621333 0.26478441 -0.53007328
C  3.46883793 0.65449021 0.82411540
C  3.09140858 -0.34828525 1.86060041
C  0.85890426 -1.78754464 3.03428715
C  1.12305019 -0.37372965 3.42621549
C  2.20949055 0.32669027 2.85501600
C  2.04181375 1.74660110 2.43311279
C  2.82017258 1.94922570 1.17797856
C  2.31256620 2.78691598 0.15923339
C  2.42580801 2.37581294 -1.26920924
C  1.18214307 2.80287224 -1.97146622
C  0.61803241 1.98025993 -2.97262989
C  -0.79642523 -2.39227814 -2.60435840
C  -1.12305075 0.37372994 -3.42621534
C  2.95431872 -2.09970353 0.06062124
60
MD Step 13 Units = [Angstroms]
C  -2.95344517 2.09879353 -0.06036568
C  -2.84016769 1.68775429 -1.48867479
C  -3.09035287 0.34849480 -1.85990804
C  -3.46773824 -0.65418395 -0.82352262
C  -3.57502668 -0.26479110 0.52957555
C  -3.31092965 1.14891895 0.92145695
C  -1.87747139 3.09156060 0.21994821