60
MD Step 0 Units = [Angstroms / fs]
C  0.00000000 0.00000000 0.00000000
C  0.00000000 0.00000000 0.00000000
C  0.00000000 0.00000000 0.00000000
C  0.00000000 0.00000000 0.00000000
C  0.00000000 0.00000000 0.00000000
C  0.00000000 0.00000000 0.00000000
C  0.00000000 0.00000000 0.00000000
C  0.00000000 0.00000000 0.00000000
C  0.00000000 0.00000000 0.00000000
C  0.00000000 0.00000000 0.00000000
C  0.00000000 0.00000000 0.00000000
C  0.00000000 0.00000000 0.00000000
C  0.00000000 0.00000000 0.00000000
C  0.00000000 0.00000000 0.00000000
C  0.00000000 0.00000000 0.00000000
C  0.00000000 0.00000000 0.00000000
C  0.00000000 0.00000000 0.00000000
C  0.00000000 0.00000000 0.00000000
C  0.00000000 0.00000000 0.00000000
C  0.00000000 0.00000000 0.00000000
C  0.00000000 0.00000000 0.00000000
C  0.00000000 0.00000000 0.00000000
C  0.00000000 0.00000000 0.00000000
C  0.00000000 0.00000000 0.00000000
C  0.00000000 0.00000000 0.00000000
C  0.00000000 0.00000000 0.00000000
C  0.00000000 0.00000000 0.00000000
C  0.00000000 0.00000000 0.00000000
C  0.00000000 0.00000000 0.00000000
C  0.00000000 0.00000000 0.00000000
C  0.00000000 0.00000000 0.00000000
C  0.00000000 0.00000000 0.00000000
C  0.00000000 0.00000000 0.00000000
C  0.00000000 0.00000000 0.00000000
C  0.00000000 0.00000000 0.00000000
C  0.00000000 0.00000000 0.00000000
C  0.00000000 0.00000000 0.00000000
C  0.00000000 0.00000000 0.00000000
C  0.00000000 0.00000000 0.00000000
C  0.00000000 0.00000000 0.00000000
C  0.00000000 0.00000000 0.00000000
C  0.00000000 0.00000000 0.00000000
C  0.00000000 0.00000000 0.00000000
C  0.00000000 0.00000000 0.00000000
C  0.00000000 0.00000000 0.00000000
C  0.00000000 0.00000000 0.00000000
C  0.00000000 0.00000000 0.00000000
C  0.00000000 0.00000000 0.00000000
C  0.00000000 0.00000000 0.00000000
C  0.00000000 0.00000000 0.00000000
C  0.00000000 0.00000000 0.00000000
C  0.00000000 0.00000000 0.00000000
C  0.00000000 0.00000000 0.00000000
C  0.00000000 0.00000000 0.00000000
C  0.00000000 0.00000000 0.00000000
C  0.00000000 0.00000000 0.00000000
C  0.00000000 0.00000000 0.00000000
C  0.00000000 0.00000000 0.00000000
C  0.00000000 0.00000000 0.00000000
C  0.00000000 0.00000000 0.00000000
60
MD Step 1 Units = [Angstroms / fs]
C  0.00883505 0.00780132 0.00874718
C  0.00884762 0.00775409 0.00858257
C  0.00904011 0.00878520 0.00886844
C  0.00899699 0.00866963 0.00898765
C  0.00907944 0.00837037 0.00794557
C  0.00910995 0.00853267 0.00799075
C  0.00895860 0.00791590 0.00877942
C  0.00904794 0.00793917 0.00863481
C  0.00898016 0.00783880 0.00851315
C  0.00833590 0.00833213 0.00923873
C  0.00914178 0.00870721 0.00875365
C  0.00907180 0.00852118 0.00894740
C  0.00868100 0.00916501 0.00816300
C  0.00866783 0.00921192 0.00832833
C  0.00914102 0.00826785 0.00806955
C  0.00920973 0.00836776 0.00819178
C  0.00919039 0.00853194 0.00814348
C  0.00840585 0.00780730 0.00793844
C  0.00844879 0.00792293 0.00781881
C  0.00797091 0.00779866 0.00858978
C  0.00805144 0.00779751 0.00874151
C  0.00861938 0.00794524 0.00782558
C  0.00868062 0.00784345 0.00794989
C  0.00854890 0.00775843 0.00801928
C  0.00842644 0.00879432 0.00771115
C  0.00830210 0.00867948 0.00767944
C  0.00837748 0.00853012 0.00763860
C  0.00881146 0.00916361 0.00840844
C  0.00916068 0.00854369 0.00880190
C  0.00792550 0.00896810 0.00810494
C  0.00843489 0.00896103 0.00906499
C  0.00847819 0.00907672 0.00894552
C  0.00769361 0.00835204 0.00874051
C  0.00777404 0.00835133 0.00889324
C  0.00803632 0.00912986 0.00830140
C  0.00790383 0.00904516 0.00837079
C  0.00783609 0.00894482 0.00824910
C  0.00891317 0.00908530 0.00829425
C  0.00883257 0.00908648 0.00814244
C  0.00826468 0.00893876 0.00905842
C  0.00833508 0.00912556 0.00886472
C  0.00845755 0.00808966 0.00917288
C  0.00858180 0.00820451 0.00920440
C  0.00767434 0.00851622 0.00869229
C  0.00774302 0.00861607 0.00881438
C  0.00780455 0.00851362 0.00893845
C  0.00788696 0.00821433 0.00789634
C  0.00784403 0.00809881 0.00801548
C  0.00854809 0.00855188 0.00764528
C  0.00857753 0.00871528 0.00769112
C  0.00774215 0.00817680 0.00813037
C  0.00772330 0.00834032 0.00808209
C  0.00781218 0.00836284 0.00793656
C  0.00820302 0.00771896 0.00872094
C  0.00821631 0.00767207 0.00855600
C  0.00807217 0.00772052 0.00847527
C  0.00850657 0.00835387 0.00924548
C  0.00820340 0.00904053 0.00893412
C  0.00830644 0.00816871 0.00919287
C  0.00804894 0.00908267 0.00813678
60
MD Step 2 Units = [Angstroms / fs]
C  0.00334929 0.00148146 0.00316820
C  0.00337040 0.00140194 0.00289100
C  0.00371195 0.00323150 0.00339822
C  0.00363938 0.00303689 0.00359895
C  0.00378567 0.00250590 0.00174992
C  0.00383706 0.00277915 0.00182602
C  0.00355729 0.00167445 0.00322249
C  0.00370771 0.00171362 0.00297896
C  0.00359364 0.00154455 0.00277409
C  0.00245050 0.00241990 0.00406152
C  0.00388317 0.00310014 0.00320489
C  0.00376537 0.00278697 0.00353122
C  0.00307194 0.00392934 0.00213941
C  0.00304974 0.00400828 0.00241790
C  0.00388935 0.00233319 0.00195873
C  0.00400506 0.00250141 0.00216461
C  0.00397250 0.00277795 0.00208332
C  0.00258045 0.00149218 0.00171949
C  0.00265271 0.00168691 0.00151801
C  0.00179666 0.00146429 0.00289907
C  0.00193230 0.00146236 0.00315456
C  0.00294002 0.00172448 0.00152938
C  0.00304311 0.00155308 0.00173876
C  0.00282133 0.00140992 0.00185561
C  0.00260403 0.00324796 0.00130887
C  0.00239462 0.00305452 0.00125555
C  0.00252162 0.00280299 0.00118676
C  0.00329167 0.00392703 0.00255272
C  0.00391495 0.00282477 0.00328610
C  0.00170236 0.00358504 0.00203763
C  0.00260620 0.00357249 0.00374111
C  0.00267909 0.00376732 0.00353992
C  0.00128697 0.00248149 0.00317614
C  0.00142240 0.00248032 0.00343343
C  0.00188897 0.00385744 0.00236843
C  0.00166581 0.00371485 0.00248528
C  0.00155181 0.00354584 0.00228035
C  0.00346295 0.00379510 0.00236046
C  0.00332720 0.00379710 0.00210482
C  0.00231956 0.00353499 0.00373010
C  0.00243811 0.00384953 0.00340385
C  0.00265543 0.00201149 0.00395065
C  0.00286468 0.00220494 0.00400364
C  0.00125453 0.00275802 0.00309498
C  0.00137019 0.00292616 0.00330063
C  0.00147379 0.00275356 0.00350958
C  0.00162002 0.00222252 0.00166050
C  0.00154778 0.00202798 0.00186112
C  0.00280896 0.00283958 0.00119797
C  0.00285845 0.00311479 0.00127523
C  0.00137618 0.00215935 0.00205462
C  0.00134449 0.00243471 0.00197336
C  0.00149407 0.00247254 0.00172818
C  0.00218757 0.00133007 0.00311996
C  0.00220999 0.00125117 0.00284216
C  0.00196716 0.00133267 0.00270624
C  0.00273794 0.00245647 0.00407286
C  0.00221640 0.00370636 0.00352073
C  0.00240099 0.00214466 0.00398424
C  0.00191017 0.00377799 0.00209121
60
MD Step 3 Units = [Angstroms / fs]
C  0.00501804 0.00248137 0.00473619
C  0.00504413 0.00238273 0.00439227
C  0.00549792 0.00481350 0.00506615
C  0.00540795 0.00457205 0.00531517
C  0.00560231 0.00386658 0.00285854
C  0.00566610 0.00420549 0.00295298
C  0.00527602 0.00272085 0.00480354
C  0.00546259 0.00276945 0.00450140
C  0.00532120 0.00255960 0.00424724
C  0.00380241 0.00372261 0.00595768
C  0.00571037 0.00465048 0.00482624
C  0.00556429 0.00426209 0.00523123
C  0.00464298 0.00577983 0.00338207
C  0.00461540 0.00587768 0.00372771
C  0.00573091 0.00365217 0.00311764
C  0.00587449 0.00386087 0.00337317
C  0.00583410 0.00420407 0.00327238
C  0.00398464 0.00249579 0.00278898
C  0.00407420 0.00273741 0.00253897
C  0.00292356 0.00243819 0.00439525
C  0.00309187 0.00243579 0.00471223
C  0.00443072 0.00278404 0.00255301
C  0.00455856 0.00257138 0.00281287
C  0.00428346 0.00239380 0.00295785
C  0.00399474 0.00483580 0.00223143
C  0.00373487 0.00459572 0.00216541
C  0.00389255 0.00428362 0.00208004
C  0.00491564 0.00577705 0.00389484
C  0.00574971 0.00430883 0.00492694
C  0.00277576 0.00533071 0.00324886
C  0.00397660 0.00531405 0.00551212
C  0.00406700 0.00555580 0.00526248
C  0.00221745 0.00384744 0.00477914
C  0.00238544 0.00384606 0.00509855
C  0.00300728 0.00566870 0.00365922
C  0.00273033 0.00549185 0.00380417
C  0.00258902 0.00528209 0.00354993
C  0.00512817 0.00561326 0.00365637
C  0.00495972 0.00561575 0.00333920
C  0.00362097 0.00526751 0.00549855
C  0.00376805 0.00565772 0.00509369
C  0.00405679 0.00321572 0.00582018
C  0.00431645 0.00345581 0.00588576
C  0.00217721 0.00419063 0.00467853
C  0.00232072 0.00439921 0.00493376
C  0.00244923 0.00418496 0.00519304
C  0.00264351 0.00347942 0.00273636
C  0.00255398 0.00323806 0.00298521
C  0.00424911 0.00432895 0.00209388
C  0.00431035 0.00467049 0.00218985
C  0.00234102 0.00340109 0.00322536
C  0.00230180 0.00374274 0.00312460
C  0.00248721 0.00378950 0.00282022
C  0.00340862 0.00227164 0.00466934
C  0.00343648 0.00217385 0.00432462
C  0.00313505 0.00227481 0.00415603
C  0.00415911 0.00376790 0.00597170
C  0.00349303 0.00548011 0.00523869
C  0.00374114 0.00338103 0.00586169
C  0.00303349 0.00557015 0.00331527
60
MD Step 4 Units = [Angstroms / fs]
C  0.00544666 0.00237786 0.00505599
C  0.00547466 0.00227147 0.00468494
C  0.00600971 0.00513753 0.00547949
C  0.00591274 0.00487704 0.00574809
C  0.00614191 0.00404524 0.00285156
C  0.00621076 0.00441071 0.00295347
C  0.00572485 0.00263629 0.00512864
C  0.00592605 0.00268869 0.00480268
C  0.00577370 0.00246219 0.00452851
C  0.00398295 0.00383347 0.00654520
C  0.00623894 0.00496159 0.00522059
C  0.00608145 0.00454283 0.00565768
C  0.00499514 0.00633232 0.00347738
C  0.00496533 0.00643774 0.00385046
C  0.00628060 0.00381374 0.00313112
C  0.00643552 0.00403887 0.00340695
C  0.00639196 0.00440928 0.00329832
C  0.00421134 0.00239510 0.00272832
C  0.00430783 0.00265579 0.00245854
C  0.00293235 0.00229811 0.00467751
C  0.00311396 0.00229552 0.00501947
C  0.00469255 0.00270612 0.00247359
C  0.00483038 0.00247672 0.00275409
C  0.00453366 0.00228518 0.00291049
C  0.00419323 0.00516443 0.00205397
C  0.00391279 0.00490531 0.00198293
C  0.00408307 0.00456856 0.00189081
C  0.00528938 0.00632945 0.00403055
C  0.00628125 0.00459301 0.00532913
C  0.00272623 0.00581454 0.00332318
C  0.00414211 0.00579491 0.00599174
C  0.00423958 0.00605576 0.00572238
C  0.00205886 0.00404148 0.00515247
C  0.00224004 0.00404009 0.00549732
C  0.00297599 0.00617920 0.00376579
C  0.00267708 0.00598851 0.00392215
C  0.00252484 0.00576210 0.00364789
C  0.00551868 0.00615258 0.00377338
C  0.00533690 0.00615528 0.00343121
C  0.00375844 0.00574469 0.00597722
C  0.00391710 0.00616560 0.00554031
C  0.00425756 0.00328635 0.00639692
C  0.00453776 0.00354548 0.00646743
C  0.00201547 0.00441188 0.00504403
C  0.00217031 0.00463687 0.00531952
C  0.00230889 0.00440555 0.00559929
C  0.00253796 0.00357368 0.00270270
C  0.00244153 0.00331330 0.00297111
C  0.00446784 0.00461735 0.00190563
C  0.00453366 0.00498596 0.00200934
C  0.00221169 0.00348926 0.00323029
C  0.00216952 0.00385783 0.00312167
C  0.00236931 0.00390804 0.00279302
C  0.00345574 0.00211840 0.00497327
C  0.00348587 0.00201305 0.00460128
C  0.00316042 0.00212175 0.00441946
C  0.00436787 0.00388222 0.00656024
C  0.00362048 0.00597404 0.00569675
C  0.00391709 0.00346482 0.00644147
C  0.00300413 0.00607292 0.00339473
60
MD Step 5 Units = [Angstroms / fs]
C  0.00853208 0.00504410 0.00802512
C  0.00855940 0.00493958 0.00766040
C  0.00914987 0.00810261 0.00853726
C  0.00905470 0.00784659 0.00880121
C  0.00930763 0.00692860 0.00560455
C  0.00937535 0.00728760 0.00570475
C  0.00880533 0.00529822 0.00809651
C  0.00900298 0.00534970 0.00777612
C  0.00885350 0.00512690 0.00750667
C  0.00687721 0.00664029 0.00973227
C  0.00937523 0.00792959 0.00828268
C  0.00922060 0.00751833 0.00871255
C  0.00802169 0.00949321 0.00630632
C  0.00799231 0.00959662 0.00667329
C  0.00944388 0.00670078 0.00587940
C  0.00959618 0.00692203 0.00615073
C  0.00955338 0.00728633 0.00604410
C  0.00714684 0.00506344 0.00541500
C  0.00724149 0.00531973 0.00514975
C  0.00569907 0.00491864 0.00763798
C  0.00587763 0.00491610 0.00797408
C  0.00761977 0.00536923 0.00516441
C  0.00775513 0.00514376 0.00544030
C  0.00746359 0.00495557 0.00559404
C  0.00708786 0.00813311 0.00464873
C  0.00681209 0.00787823 0.00457918
C  0.00697970 0.00754719 0.00448858
C  0.00831101 0.00949057 0.00685001
C  0.00941664 0.00756730 0.00838922
C  0.00543023 0.00893707 0.00613986
C  0.00699281 0.00891542 0.00908494
C  0.00708854 0.00917187 0.00882014
C  0.00468189 0.00694889 0.00819114
C  0.00485991 0.00694766 0.00853049
C  0.00567569 0.00929554 0.00657478
C  0.00538173 0.00910825 0.00672843
C  0.00523237 0.00888555 0.00645888
C  0.00853643 0.00931649 0.00659737
C  0.00835769 0.00931916 0.00626104
C  0.00661569 0.00886604 0.00907086
C  0.00677163 0.00927967 0.00864122
C  0.00714739 0.00610213 0.00958662
C  0.00742289 0.00635700 0.00965558
C  0.00463928 0.00731317 0.00808472
C  0.00479151 0.00753427 0.00835569
C  0.00492763 0.00730664 0.00863076
C  0.00518044 0.00638858 0.00543404
C  0.00508587 0.00613266 0.00569777
C  0.00735803 0.00759499 0.00450301
C  0.00742239 0.00795749 0.00460519
C  0.00485983 0.00630571 0.00595266
C  0.00481858 0.00666800 0.00584603
C  0.00501462 0.00671699 0.00552259
C  0.00621365 0.00474196 0.00792877
C  0.00624339 0.00463862 0.00756300
C  0.00592314 0.00474513 0.00738437
C  0.00725570 0.00668804 0.00974693
C  0.00648019 0.00909144 0.00879499
C  0.00681281 0.00627775 0.00963007
C  0.00570317 0.00919113 0.00621005
60
MD Step 6 Units = [Angstroms / fs]
C  0.00667519 0.00286126 0.00604581
C  0.00669967 0.00276652 0.00571500
C  0.00732428 0.00611245 0.00664253
C  0.00723815 0.00588024 0.00688184
C  0.00750571 0.00490918 0.00350037
C  0.00756720 0.00523449 0.00359130
C  0.00692277 0.00309188 0.00611055
C  0.00710189 0.00313855 0.00581995
C  0.00696668 0.00293623 0.00557561
C  0.00487612 0.00453715 0.00792982
C  0.00752874 0.00595539 0.00641147
C  0.00738871 0.00558285 0.00680172
C  0.00612044 0.00767187 0.00425635
C  0.00609369 0.00776538 0.00458957
C  0.00762920 0.00470216 0.00374974
C  0.00776739 0.00490279 0.00399615
C  0.00772858 0.00523352 0.00389962
C  0.00518293 0.00288211 0.00323410
C  0.00526852 0.00311462 0.00299340
C  0.00360693 0.00268256 0.00567382
C  0.00376897 0.00268025 0.00597864
C  0.00561182 0.00315956 0.00300652
C  0.00573443 0.00295508 0.00325702
C  0.00547014 0.00278448 0.00339646
C  0.00507265 0.00614569 0.00239647
C  0.00482235 0.00591428 0.00233376
C  0.00497472 0.00561394 0.00225152
C  0.00638302 0.00766973 0.00474944
C  0.00756605 0.00562678 0.00650791
C  0.00327175 0.00710235 0.00408483
C  0.00492467 0.00707946 0.00720022
C  0.00501140 0.00731215 0.00695997
C  0.00246564 0.00496064 0.00629456
C  0.00262701 0.00495972 0.00660289
C  0.00349436 0.00742754 0.00447913
C  0.00322750 0.00725786 0.00461843
C  0.00309242 0.00705564 0.00437399
C  0.00658752 0.00751151 0.00452049
C  0.00642531 0.00751395 0.00421543
C  0.00458260 0.00703465 0.00718770
C  0.00472403 0.00740971 0.00679774
C  0.00512154 0.00404849 0.00779785
C  0.00537156 0.00427990 0.00785991
C  0.00242703 0.00529136 0.00619826
C  0.00256514 0.00549183 0.00644429
C  0.00268850 0.00528501 0.00669389
C  0.00295593 0.00431387 0.00331235
C  0.00287045 0.00408177 0.00355144
C  0.00531806 0.00565707 0.00226441
C  0.00537596 0.00598613 0.00235742
C  0.00266526 0.00423887 0.00378281
C  0.00262811 0.00456747 0.00368628
C  0.00280545 0.00461143 0.00339237
C  0.00407386 0.00252225 0.00593768
C  0.00410098 0.00242880 0.00560574
C  0.00381001 0.00252497 0.00544383
C  0.00521963 0.00458023 0.00794296
C  0.00445985 0.00723907 0.00693722
C  0.00481818 0.00420805 0.00783679
C  0.00351902 0.00733292 0.00414830
60
MD Step 7 Units = [Angstroms / fs]
C  -0.00269638 -0.00675942 -0.00345249
C  -0.00267643 -0.00683804 -0.00372733
C  -0.00203504 -0.00340216 -0.00277489
C  -0.00210633 -0.00359506 -0.00257621
C  -0.00183158 -0.00459222 -0.00604858
C  -0.00178040 -0.00432238 -0.00597296
C  -0.00249104 -0.00656764 -0.00339874
C  -0.00234246 -0.00652891 -0.00364015
C  -0.00245428 -0.00669732 -0.00384307
C  -0.00460101 -0.00505333 -0.00142566
C  -0.00186511 -0.00353281 -0.00296705
C  -0.00198113 -0.00384164 -0.00264238
C  -0.00328354 -0.00169652 -0.00525618
C  -0.00330591 -0.00161922 -0.00497885
C  -0.00172910 -0.00476471 -0.00584129
C  -0.00161425 -0.00459811 -0.00563618
C  -0.00164646 -0.00432293 -0.00571609
C  -0.00426050 -0.00673755 -0.00639956
C  -0.00418976 -0.00654431 -0.00659969
C  -0.00593138 -0.00699718 -0.00379022
C  -0.00579667 -0.00699910 -0.00353703
C  -0.00390430 -0.00650692 -0.00658904
C  -0.00380267 -0.00667676 -0.00638056
C  -0.00402203 -0.00681836 -0.00626473
C  -0.00443024 -0.00336687 -0.00729164
C  -0.00463840 -0.00355944 -0.00734322
C  -0.00451135 -0.00380905 -0.00741163
C  -0.00306519 -0.00169795 -0.00484661
C  -0.00183445 -0.00380581 -0.00288719
C  -0.00633550 -0.00225920 -0.00542693
C  -0.00463815 -0.00228268 -0.00222776
C  -0.00456624 -0.00208926 -0.00242744
C  -0.00718038 -0.00450398 -0.00311079
C  -0.00704646 -0.00450448 -0.00285392
C  -0.00615061 -0.00198897 -0.00509961
C  -0.00637262 -0.00212967 -0.00498396
C  -0.00648429 -0.00229796 -0.00518698
C  -0.00289524 -0.00182983 -0.00503655
C  -0.00303012 -0.00182777 -0.00528998
C  -0.00492234 -0.00231994 -0.00223782
C  -0.00480488 -0.00200852 -0.00256214
C  -0.00439665 -0.00546002 -0.00153511
C  -0.00418875 -0.00526746 -0.00148421
C  -0.00721241 -0.00422882 -0.00319048
C  -0.00709761 -0.00406237 -0.00298575
C  -0.00699528 -0.00423467 -0.00277824
C  -0.00672066 -0.00523190 -0.00625067
C  -0.00679128 -0.00542469 -0.00605222
C  -0.00422587 -0.00377351 -0.00740119
C  -0.00417842 -0.00349979 -0.00732346
C  -0.00696197 -0.00529400 -0.00585974
C  -0.00699246 -0.00502101 -0.00593968
C  -0.00684578 -0.00498516 -0.00618460
C  -0.00554323 -0.00713043 -0.00357086
C  -0.00552049 -0.00720768 -0.00384688
C  -0.00576288 -0.00712840 -0.00398121
C  -0.00431537 -0.00501786 -0.00141496
C  -0.00502413 -0.00215016 -0.00244627
C  -0.00464851 -0.00532711 -0.00150339
C  -0.00613049 -0.00206747 -0.00537447
60
MD Step 8 Units = [Angstroms / fs]
C  -0.00275783 -0.00700681 -0.00364301
C  -0.00274374 -0.00706441 -0.00384484
C  -0.00209949 -0.00361315 -0.00288817
C  -0.00215147 -0.00375478 -0.00274246
C  -0.00187547 -0.00475639 -0.00623034
C  -0.00183776 -0.00455886 -0.00617472
C  -0.00260755 -0.00686572 -0.00360357
C  -0.00249876 -0.00683734 -0.00378084
C  -0.00258013 -0.00696145 -0.00392973
C  -0.00473646 -0.00531009 -0.00150161
C  -0.00197460 -0.00370934 -0.00302956
C  -0.00205937 -0.00393517 -0.00279049
C  -0.00336765 -0.00178053 -0.00541598
C  -0.00338429 -0.00172430 -0.00521163
C  -0.00180040 -0.00488379 -0.00607797
C  -0.00171599 -0.00476155 -0.00592678
C  -0.00173960 -0.00455890 -0.00598508
C  -0.00436527 -0.00698431 -0.00667166
C  -0.00431385 -0.00684231 -0.00681884
C  -0.00610373 -0.00730772 -0.00393159
C  -0.00600467 -0.00730913 -0.00374572
C  -0.00410388 -0.00681477 -0.00681137
C  -0.00402957 -0.00693943 -0.00665777
C  -0.00419036 -0.00704323 -0.00657272
C  -0.00460044 -0.00357639 -0.00760427
C  -0.00475360 -0.00371825 -0.00764141
C  -0.00465966 -0.00390168 -0.00769177
C  -0.00320701 -0.00178108 -0.00511535
C  -0.00195257 -0.00390981 -0.00297129
C  -0.00657825 -0.00232037 -0.00558134
C  -0.00487331 -0.00234393 -0.00236784
C  -0.00482071 -0.00220175 -0.00251459
C  -0.00744648 -0.00462725 -0.00320105
C  -0.00734834 -0.00462725 -0.00301140
C  -0.00644255 -0.00212184 -0.00534135
C  -0.00660601 -0.00222477 -0.00525654
C  -0.00668724 -0.00234878 -0.00540554
C  -0.00308214 -0.00187854 -0.00525443
C  -0.00318135 -0.00187699 -0.00544052
C  -0.00508202 -0.00237133 -0.00237474
C  -0.00499579 -0.00214290 -0.00261340
C  -0.00458570 -0.00560975 -0.00158172
C  -0.00443279 -0.00546790 -0.00154527
C  -0.00746992 -0.00442463 -0.00325913
C  -0.00738555 -0.00430253 -0.00310830
C  -0.00731063 -0.00442974 -0.00295572
C  -0.00703478 -0.00543142 -0.00644366
C  -0.00708605 -0.00557294 -0.00629818
C  -0.00444967 -0.00387601 -0.00768448
C  -0.00441575 -0.00367450 -0.00762677
C  -0.00721172 -0.00547672 -0.00615648
C  -0.00723358 -0.00527626 -0.00621483
C  -0.00712679 -0.00525088 -0.00639573
C  -0.00581836 -0.00740567 -0.00377030
C  -0.00580136 -0.00746184 -0.00397333
C  -0.00598031 -0.00740449 -0.00407173
C  -0.00452632 -0.00528448 -0.00149407
C  -0.00515648 -0.00224673 -0.00252830
C  -0.00477043 -0.00551164 -0.00155933
C  -0.00642828 -0.00217933 -0.00554320
60
MD Step 9 Units = [Angstroms / fs]
C  -0.00152229 -0.00590537 -0.00253681
C  -0.00151503 -0.00593837 -0.00265314
C  -0.00087889 -0.00253047 -0.00170853
C  -0.00090827 -0.00261205 -0.00162485
C  -0.00063574 -0.00360108 -0.00506888
C  -0.00061381 -0.00348817 -0.00503668
C  -0.00143646 -0.00582366 -0.00251414
C  -0.00137424 -0.00580740 -0.00261629
C  -0.00142003 -0.00587961 -0.00270192
C  -0.00354923 -0.00424897 -0.00030443
C  -0.00080675 -0.00258627 -0.00179044
C  -0.00085494 -0.00271498 -0.00165167
C  -0.00214684 -0.00058748 -0.00424418
C  -0.00215674 -0.00055591 -0.00412533
C  -0.00059274 -0.00367560 -0.00498083
C  -0.00054398 -0.00360531 -0.00489282
C  -0.00055753 -0.00348764 -0.00492583
C  -0.00315015 -0.00588256 -0.00560385
C  -0.00312130 -0.00580057 -0.00568901
C  -0.00493393 -0.00627188 -0.00276516
C  -0.00487663 -0.00627270 -0.00265813
C  -0.00299975 -0.00578458 -0.00568524
C  -0.00295743 -0.00585633 -0.00559594
C  -0.00304964 -0.00591588 -0.00554694
C  -0.00345461 -0.00249269 -0.00656558
C  -0.00354336 -0.00257513 -0.00658587
C  -0.00348822 -0.00268106 -0.00661507
C  -0.00205382 -0.00058704 -0.00407109
C  -0.00079479 -0.00270180 -0.00175744
C  -0.00547912 -0.00109221 -0.00440058
C  -0.00379563 -0.00111544 -0.00122742
C  -0.00376562 -0.00103327 -0.00131218
C  -0.00635832 -0.00342829 -0.00199007
C  -0.00630207 -0.00342771 -0.00187922
C  -0.00540103 -0.00097765 -0.00426282
C  -0.00549590 -0.00103639 -0.00421412
C  -0.00554153 -0.00110849 -0.00429986
C  -0.00198174 -0.00064415 -0.00415065
C  -0.00203917 -0.00064319 -0.00425788
C  -0.00391592 -0.00113130 -0.00123065
C  -0.00386629 -0.00100003 -0.00136895
C  -0.00346131 -0.00442322 -0.00035019
C  -0.00337279 -0.00434080 -0.00033060
C  -0.00637172 -0.00331064 -0.00202288
C  -0.00632298 -0.00324049 -0.00193521
C  -0.00628014 -0.00331484 -0.00184696
C  -0.00600775 -0.00430392 -0.00529105
C  -0.00603642 -0.00438540 -0.00520759
C  -0.00336667 -0.00266690 -0.00661145
C  -0.00334853 -0.00255001 -0.00657721
C  -0.00610934 -0.00432956 -0.00512538
C  -0.00612113 -0.00421404 -0.00515846
C  -0.00606099 -0.00420085 -0.00526433
C  -0.00476895 -0.00632849 -0.00267188
C  -0.00475869 -0.00636001 -0.00278941
C  -0.00486327 -0.00632829 -0.00284575
C  -0.00342755 -0.00423489 -0.00030055
C  -0.00395840 -0.00105960 -0.00131991
C  -0.00356743 -0.00436591 -0.00033865
C  -0.00539359 -0.00101054 -0.00437917
60
MD Step 10 Units = [Angstroms / fs]
C  0.00378318 -0.00069158 0.00264104
C  0.00378297 -0.00069754 0.00261868
C  0.00440257 0.00262185 0.00353872
C  0.00439801 0.00260626 0.00355424
C  0.00466348 0.00164293 0.00019969
C  0.00466806 0.00166285 0.00020613
C  0.00379821 -0.00067514 0.00264529
C  0.00380926 -0.00067220 0.00262570
C  0.00380256 -0.00068735 0.00260959
C  0.00172868 0.00090097 0.00494469
C  0.00441673 0.00261045 0.00352218
C  0.00440873 0.00258845 0.00355071
C  0.00315032 0.00466060 0.00102552
C  0.00314782 0.00466511 0.00105037
C  0.00467122 0.00162653 0.00021703
C  0.00468080 0.00163974 0.00023557
C  0.00467832 0.00166400 0.00023035
C  0.00215310 -0.00066872 -0.00043014
C  0.00215715 -0.00065268 -0.00044712
C  0.00034202 -0.00112463 0.00248069
C  0.00035342 -0.00112480 0.00250107
C  0.00218150 -0.00064938 -0.00044741
C  0.00218870 -0.00066300 -0.00042880
C  0.00217184 -0.00067391 -0.00041942
C  0.00177733 0.00266028 -0.00141165
C  0.00175940 0.00264315 -0.00141345
C  0.00177185 0.00262241 -0.00141940
C  0.00316902 0.00466211 0.00105843
C  0.00441765 0.00258826 0.00352744
C  -0.00027304 0.00420004 0.00088073
C  0.00136672 0.00417744 0.00397150
C  0.00137190 0.00419365 0.00395488
C  -0.00115339 0.00186085 0.00329453
C  -0.00114316 0.00186203 0.00331874
C  -0.00025825 0.00422231 0.00090613
C  -0.00027772 0.00421213 0.00091515
C  -0.00028426 0.00419708 0.00089894
C  0.00318308 0.00464937 0.00104427
C  0.00317157 0.00464968 0.00102370
C  0.00134359 0.00417428 0.00397229
C  0.00135302 0.00419877 0.00394430
C  0.00174752 0.00086459 0.00493666
C  0.00176524 0.00088169 0.00493775
C  -0.00115574 0.00188508 0.00328948
C  -0.00114617 0.00189816 0.00330771
C  -0.00113858 0.00188193 0.00332524
C  -0.00087326 0.00091855 -0.00002937
C  -0.00087712 0.00090305 -0.00001405
C  0.00179620 0.00262392 -0.00141979
C  0.00179703 0.00264781 -0.00141139
C  -0.00089204 0.00091449 0.00000276
C  -0.00089279 0.00093667 -0.00000256
C  -0.00088388 0.00093649 -0.00002592
C  0.00037467 -0.00113579 0.00249920
C  0.00037750 -0.00114026 0.00247565
C  0.00035470 -0.00113665 0.00246552
C  0.00175314 0.00090240 0.00494454
C  0.00133624 0.00418784 0.00395372
C  0.00172778 0.00087705 0.00493630
C  -0.00025828 0.00421644 0.00088375
60
MD Step 11 Units = [Angstroms / fs]
C  -0.00192095 -0.00645281 -0.00318716
C  -0.00192901 -0.00643033 -0.00311060
C  -0.00133222 -0.00323301 -0.00222445
C  -0.00131066 -0.00317914 -0.00228067
C  -0.00105495 -0.00410703 -0.00551182
C  -0.00106863 -0.00418497 -0.00553247
C  -0.00198044 -0.00650510 -0.00320231
C  -0.00202326 -0.00651617 -0.00313499
C  -0.00198883 -0.00647124 -0.00307791
C  -0.00398641 -0.00494131 -0.00082884
C  -0.00137910 -0.00319767 -0.00217215
C  -0.00134482 -0.00310737 -0.00225971
C  -0.00255701 -0.00111152 -0.00469202
C  -0.00255170 -0.00113549 -0.00476616
C  -0.00108430 -0.00406220 -0.00556890
C  -0.00111598 -0.00410909 -0.00562351
C  -0.00110682 -0.00418319 -0.00559950
C  -0.00353909 -0.00643009 -0.00623577
C  -0.00356112 -0.00648350 -0.00618099
C  -0.00536298 -0.00695198 -0.00327468
C  -0.00539991 -0.00695147 -0.00334551
C  -0.00363910 -0.00649356 -0.00618552
C  -0.00366887 -0.00644597 -0.00624136
C  -0.00360643 -0.00640569 -0.00627367
C  -0.00398648 -0.00319425 -0.00722947
C  -0.00392985 -0.00314260 -0.00721182
C  -0.00396235 -0.00307365 -0.00719330
C  -0.00261655 -0.00110890 -0.00480668
C  -0.00138980 -0.00312159 -0.00219609
C  -0.00604604 -0.00152164 -0.00482336
C  -0.00446660 -0.00154337 -0.00184623
C  -0.00448755 -0.00159661 -0.00179111
C  -0.00691988 -0.00384359 -0.00242725
C  -0.00695810 -0.00384178 -0.00249429
C  -0.00609789 -0.00159653 -0.00491622
C  -0.00603796 -0.00155560 -0.00494896
C  -0.00600338 -0.00151058 -0.00489199
C  -0.00266358 -0.00107490 -0.00475201
C  -0.00262674 -0.00107529 -0.00468134
C  -0.00438745 -0.00153318 -0.00184123
C  -0.00442035 -0.00162107 -0.00175308
C  -0.00404031 -0.00483251 -0.00079715
C  -0.00409712 -0.00488420 -0.00081549
C  -0.00691061 -0.00391772 -0.00240309
C  -0.00694227 -0.00396472 -0.00245797
C  -0.00697178 -0.00391975 -0.00251489
C  -0.00671622 -0.00484768 -0.00574609
C  -0.00669397 -0.00479372 -0.00580251
C  -0.00404035 -0.00308543 -0.00719789
C  -0.00405769 -0.00315948 -0.00721671
C  -0.00664783 -0.00482903 -0.00585455
C  -0.00663697 -0.00490512 -0.00583067
C  -0.00668196 -0.00491933 -0.00576713
C  -0.00546963 -0.00691530 -0.00333488
C  -0.00547463 -0.00689130 -0.00325949
C  -0.00541131 -0.00691727 -0.00322097
C  -0.00406431 -0.00495317 -0.00083321
C  -0.00435783 -0.00158081 -0.00178536
C  -0.00396913 -0.00486729 -0.00081001
C  -0.00610578 -0.00157396 -0.00483967
60
MD Step 12 Units = [Angstroms / fs]
C  0.00624080 0.00167992 0.00485569
C  0.00622475 0.00173141 0.00503312
C  0.00679430 0.00478282 0.00587878
C  0.00684247 0.00490753 0.00574941
C  0.00708652 0.00402199 0.00266575
C  0.00705421 0.00384428 0.00261745
C  0.00610533 0.00155754 0.00482076
C  0.00600761 0.00153218 0.00497671
C  0.00608395 0.00163839 0.00510840
C  0.00417756 0.00309853 0.00725469
C  0.00668517 0.00486584 0.00600128
C  0.00676256 0.00507063 0.00579533
C  0.00560561 0.00697530 0.00347402
C  0.00561889 0.00692231 0.00329893
C  0.00701934 0.00412926 0.00253276
C  0.00694560 0.00402110 0.00240356
C  0.00696663 0.00384669 0.00245736
C  0.00464543 0.00170234 0.00185004
C  0.00459682 0.00157812 0.00197802
C  0.00282029 0.00111624 0.00484338
C  0.00273408 0.00111746 0.00467955
C  0.00441449 0.00155443 0.00196915
C  0.00434702 0.00166443 0.00183741
C  0.00449033 0.00175691 0.00176256
C  0.00412757 0.00482168 0.00085032
C  0.00426023 0.00494347 0.00088778
C  0.00418187 0.00510388 0.00093127
C  0.00546627 0.00697904 0.00320889
C  0.00666264 0.00504212 0.00594758
C  0.00207198 0.00661953 0.00335733
C  0.00357933 0.00659883 0.00619863
C  0.00353174 0.00647477 0.00632690
C  0.00121050 0.00433036 0.00571972
C  0.00112288 0.00433280 0.00555961
C  0.00195218 0.00644557 0.00314389
C  0.00209308 0.00653860 0.00306856
C  0.00216958 0.00664489 0.00320015
C  0.00535696 0.00706070 0.00333374
C  0.00544310 0.00705961 0.00349744
C  0.00376278 0.00662265 0.00620791
C  0.00368672 0.00642016 0.00641451
C  0.00404947 0.00335539 0.00732687
C  0.00391666 0.00323355 0.00728874
C  0.00123162 0.00415592 0.00577366
C  0.00115791 0.00404765 0.00564421
C  0.00109057 0.00415505 0.00551136
C  0.00133448 0.00326948 0.00242765
C  0.00138334 0.00339426 0.00229810
C  0.00399951 0.00507855 0.00092239
C  0.00396364 0.00490462 0.00087580
C  0.00149174 0.00331129 0.00217584
C  0.00151442 0.00313499 0.00222948
C  0.00141449 0.00310649 0.00238167
C  0.00257157 0.00120171 0.00470292
C  0.00255858 0.00125473 0.00487921
C  0.00270974 0.00119862 0.00496733
C  0.00399527 0.00307312 0.00724602
C  0.00383009 0.00651262 0.00633970
C  0.00421336 0.00327243 0.00730130
C  0.00193629 0.00649714 0.00332130
60
MD Step 13 Units = [Angstroms / fs]
C  0.00283691 -0.00173032 0.00133945
C  0.00281293 -0.00164998 0.00161717
C  0.00335229 0.00123984 0.00241799
C  0.00342692 0.00143498 0.00221590
C  0.00365807 0.00059634 -0.00070443
C  0.00360723 0.00031944 -0.00078021
C  0.00262591 -0.00192238 0.00128485
C  0.00247359 -0.00196195 0.00152892
C  0.00259159 -0.00179481 0.00173481
C  0.00078620 -0.00041196 0.00376728
C  0.00318127 0.00137026 0.00261030
C  0.00330152 0.00168887 0.00228662
C  0.00220577 0.00349258 0.00008824
C  0.00222696 0.00341074 -0.00018724
C  0.00355328 0.00076572 -0.00091289
C  0.00343770 0.00059663 -0.00111628