60
MD Step 0 Units = [eV / Ang.]
C  0.78283618 -1.30938719 0.63526845
C  0.81043722 -1.41287028 0.27468472
C  1.20853951 0.71951082 0.86587021
C  1.11403285 0.46634965 1.12703915
C  1.28453269 -0.15252900 -1.02803941
C  1.35135021 0.20307482 -0.92906668
C  1.05354552 -1.05841695 0.70590126
C  1.24929264 -1.00744434 0.38911443
C  1.10072478 -1.22725014 0.12258631
C  -0.23163713 -0.20702728 1.62314227
C  1.43123765 0.54870136 0.61445852
C  1.27788030 0.14106455 1.03878237
C  0.46970101 1.47255377 -0.58338536
C  0.44087153 1.57538584 -0.22130802
C  1.41944254 -0.37701059 -0.75646413
C  1.56994704 -0.15814614 -0.48879525
C  1.52757802 0.20142948 -0.59464459
C  -0.09489814 -1.29716510 -1.01866793
C  -0.00076284 -1.04387871 -1.28068774
C  -0.97804862 -1.29803103 0.29599927
C  -0.80165441 -1.30053745 0.62836930
C  0.37288083 -0.99502335 -1.26581305
C  0.50706367 -1.21801099 -0.99358073
C  0.21849290 -1.40427634 -0.84157078
C  -0.03474736 0.73802423 -1.47878951
C  -0.30708372 0.48651271 -1.54834138
C  -0.14204607 0.15934638 -1.63778539
C  0.75544926 1.46941320 -0.04571876
C  1.47269324 0.19049636 0.72020450
C  -1.05331576 1.05845259 -0.70512205
C  0.00012211 1.04381769 1.28028902
C  0.09499841 1.29722062 1.01860628
C  -1.52756779 -0.20144853 0.59463911
C  -1.35133924 -0.20306053 0.92907038
C  -0.81054282 1.41277752 -0.27472301
C  -1.10072431 1.22718505 -0.12268752
C  -1.24922329 1.00745411 -0.38928753
C  0.97823135 1.29795844 -0.29591502
C  0.80170174 1.30054697 -0.62845339
C  -0.37272722 0.99503952 1.26583975
C  -0.21851135 1.40427177 0.84158213
C  0.03475503 -0.73803043 1.47886242
C  0.30689305 -0.48651098 1.54803197
C  -1.56978970 0.15811635 0.48895034
C  -1.41935443 0.37687586 0.75634981
C  -1.28452378 0.15253577 1.02808598
C  -1.11409826 -0.46640302 -1.12703624
C  -1.20821693 -0.71948281 -0.86601288
C  0.23163359 0.20706010 -1.62311186
C  0.29626571 0.56493750 -1.52277123
C  -1.43136340 -0.54866032 -0.61438787
C  -1.47271627 -0.19045798 -0.72019547
C  -1.27789883 -0.14100633 -1.03885253
C  -0.46963992 -1.47260292 0.58328026
C  -0.44055738 -1.57538890 0.22201298
C  -0.75618848 -1.46912990 0.04513427
C  0.14217034 -0.15934318 1.63798234
C  -0.50700146 1.21797952 0.99361462
C  -0.29628863 -0.56494411 1.52278580
C  -0.78283337 1.30938223 -0.63532292
60
MD Step 1 Units = [eV / Ang.]
C  0.79180934 -1.28262337 0.60821122
C  0.81650671 -1.37551159 0.28447213
C  1.20076069 0.68274097 0.85509536
C  1.11597108 0.45545425 1.08954842
C  1.28054609 -0.14190869 -0.99060788
C  1.34055576 0.17726375 -0.90173429
C  1.03477458 -1.05726277 0.67161694
C  1.21047158 -1.01150729 0.38720853
C  1.07719517 -1.20892241 0.14793177
C  -0.20884363 -0.22415788 1.59629304
C  1.40071392 0.52935035 0.62933690
C  1.26309830 0.16351982 1.01039538
C  0.48300025 1.44869642 -0.55537918
C  0.45708769 1.54093515 -0.23019926
C  1.40164045 -0.34355617 -0.74675997
C  1.53677368 -0.14707687 -0.50636179
C  1.49874346 0.17583727 -0.60133322
C  -0.06730855 -1.27065161 -1.01063129
C  0.01712491 -1.04323747 -1.24590975
C  -0.93944629 -1.29199579 0.29732626
C  -0.78105378 -1.29424884 0.59571881
C  0.35263702 -0.99936215 -1.23260855
C  0.47305697 -1.19955011 -0.98811989
C  0.21402018 -1.36675407 -0.85164747
C  -0.03042872 0.70104336 -1.46672488
C  -0.27497572 0.47516503 -1.52905654
C  -0.12670893 0.18141574 -1.60937874
C  0.73958885 1.44595369 -0.07267725
C  1.43786184 0.20775180 0.72421775
C  -1.03455443 1.05729624 -0.67087007
C  -0.01774119 1.04317826 1.24553060
C  0.06740519 1.27070437 1.01057140
C  -1.49873161 -0.17585688 0.60132889
C  -1.34054462 -0.17725013 0.90173729
C  -0.81660715 1.37542388 -0.28450849
C  -1.07719559 1.20885905 -0.14802971
C  -1.21040461 1.01151551 -0.38737050
C  0.93962102 1.29192631 -0.29724578
C  0.78110141 1.29425796 -0.59580143
C  -0.35249206 0.99937645 1.23263454
C  -0.21403869 1.36675073 0.85165760
C  0.03043444 -0.70104965 1.46679579
C  0.27479292 -0.47516278 1.52875570
C  -1.53662270 0.14704977 0.50650981
C  -1.40155438 0.34342660 0.74665015
C  -1.28053643 0.14191327 0.99065413
C  -1.11603344 -0.45550649 -1.08954647
C  -1.20044747 -0.68271460 -0.85523344
C  0.20883837 0.22418837 -1.59626389
C  0.26671965 0.54556339 -1.50607954
C  -1.40083429 -0.52931052 -0.62927012
C  -1.43788254 -0.20771556 -0.72421005
C  -1.26311754 -0.16346231 -1.01046233
C  -0.48293990 -1.44874342 0.55528107
C  -0.45678806 -1.54093704 0.23087831
C  -0.74029984 -1.44567608 0.07211559
C  0.12682778 -0.18141571 1.60956510
C  -0.47299874 1.19952187 0.98815214
C  -0.26674285 -0.54556992 1.50609414
C  -0.79180552 1.28261854 -0.60826300
60
MD Step 2 Units = [eV / Ang.]
C  0.81758599 -1.20353678 0.52866378
C  0.83375857 -1.26536496 0.31294303
C  1.17727143 0.57473776 0.82305728
C  1.12096420 0.42330065 0.97918277
C  1.26810412 -0.11073905 -0.88048019
C  1.30815617 0.10162499 -0.82121498
C  0.97922518 -1.05324163 0.57089530
C  1.09613935 -1.02278470 0.38138959
C  1.00770192 -1.15455657 0.22201169
C  -0.14201395 -0.27413586 1.51676116
C  1.31055908 0.47240522 0.67248702
C  1.21908388 0.22912231 0.92672700
C  0.52161882 1.37801378 -0.47310159
C  0.50424833 1.43919605 -0.25606749
C  1.34870351 -0.24546639 -0.71791832
C  1.43878409 -0.11460036 -0.55744750
C  1.41346468 0.10085792 -0.62053099
C  0.01345424 -1.19230981 -0.98650843
C  0.06945251 -1.04072622 -1.14339393
C  -0.82591936 -1.27355564 0.30102647
C  -0.72030500 -1.27506063 0.49982464
C  0.29319102 -1.01145024 -1.13470874
C  0.37326356 -1.14481178 -0.97154063
C  0.20081160 -1.25613105 -0.88060913
C  -0.01777042 0.59241278 -1.43054024
C  -0.18087164 0.44167613 -1.47170022
C  -0.08175067 0.24587398 -1.52528396
C  0.69273954 1.37643853 -0.15151979
C  1.33506714 0.25811602 0.73551475
C  -0.97903526 1.05326707 -0.57023501
C  -0.07000359 1.04067052 1.14307132
C  -0.01337208 1.19235396 0.98645011
C  -1.41344675 -0.10087504 0.62053055
C  -1.30814537 -0.10161390 0.82121614
C  -0.83384689 1.26529139 -0.31297551
C  -1.00770718 1.15450106 -0.22209400
C  -1.09607557 1.02279131 -0.38152935
C  0.82606593 1.27349109 -0.30096130
C  0.72035293 1.27506788 -0.49989255
C  -0.29306397 1.01146274 1.13472704
C  -0.20082650 1.25612929 0.88061713
C  0.01777046 -0.59241821 1.43060636
C  0.18071830 -0.44167869 1.47142027
C  -1.43865720 0.11457646 0.55757186
C  -1.34861903 0.24535510 0.71782715
C  -1.26809360 0.11074005 0.88052097
C  -1.12102269 -0.42334431 -0.97918230
C  -1.17697933 -0.57471643 -0.82317909
C  0.14201173 0.27415919 -1.51673820
C  0.18010711 0.48855248 -1.45631897
C  -1.31066457 -0.47236865 -0.67243192
C  -1.33508290 -0.25808398 -0.73550935
C  -1.21910067 -0.22907386 -0.92678319
C  -0.52156091 -1.37805375 0.47301646
C  -0.50398542 -1.43919963 0.25668152
C  -0.69337532 -1.37616995 0.15101583
C  0.08184663 -0.24588219 1.52544553
C  -0.37321585 1.14478984 0.97156877
C  -0.18013110 -0.48855786 1.45633475
C  -0.81757926 1.20353257 -0.52870940
60
MD Step 3 Units = [eV / Ang.]
C  0.85678681 -1.07581536 0.40156905
C  0.85941980 -1.08830891 0.35742487
C  1.13769279 0.40246287 0.77064399
C  1.12662623 0.37150698 0.80235442
C  1.24584667 -0.06113060 -0.70422777
C  1.25419600 -0.01842195 -0.69199258
C  0.88924601 -1.04475774 0.41016409
C  0.91279042 -1.03860093 0.37140428
C  0.89557297 -1.06610003 0.33894059
C  -0.03584292 -0.35277086 1.38770508
C  1.16509116 0.38123611 0.73950182
C  1.14690052 0.33260444 0.79230093
C  0.58175883 1.26325859 -0.34179131
C  0.57795678 1.27511560 -0.29653802
C  1.26212411 -0.08956385 -0.67078144
C  1.28064156 -0.06291592 -0.63726713
C  1.27551228 -0.01813968 -0.64970270
C  0.14138915 -1.06579245 -0.94630820
C  0.15221917 -1.03465919 -0.97867164
C  -0.64438847 -1.24178395 0.30628467
C  -0.62260848 -1.24209965 0.34688439
C  0.19841798 -1.02857271 -0.97731760
C  0.21440499 -1.05578871 -0.94332258
C  0.17948077 -1.07833989 -0.92472928
C  0.00232162 0.41911216 -1.37033725
C  -0.03141266 0.38773047 -1.37787147
C  -0.01035447 0.34750659 -1.38898345
C  0.61712130 1.26353612 -0.27613402
C  1.16952409 0.33739380 0.75193835
C  -0.88910780 1.04477022 -0.40964514
C  -0.15266641 1.03460974 0.97844253
C  -0.14132925 1.06582149 0.94625221
C  -1.27548619 0.01812877 0.64970668
C  -1.25418502 0.01842948 0.69199192
C  -0.85948918 1.08825784 -0.35745131
C  -0.89558451 1.06605753 -0.33899879
C  -0.91273182 1.03860408 -0.37151017
C  0.64449247 1.24172743 -0.30624256
C  0.62265661 1.24210317 -0.34693054
C  -0.19831797 1.02858279 0.97732328
C  -0.17948990 1.07833970 0.92473439
C  -0.00232968 -0.41911458 1.37039628
C  0.03130607 -0.38774244 1.37762420
C  -1.28055397 0.06289568 0.63735434
C  -1.26204238 0.08948269 0.67072107
C  -1.24583463 0.06112563 0.70425695
C  -1.12667971 -0.37153568 -0.80235380
C  -1.13743502 -0.40244991 -0.77073987
C  0.03584545 0.35278323 -1.38769133
C  0.04252100 0.39724649 -1.37455804
C  -1.16517254 -0.38120448 -0.73946574
C  -1.16953152 -0.33736841 -0.75193563
C  -1.14691192 -0.33257191 -0.79234146
C  -0.58170616 -1.26328677 0.34172571
C  -0.57775155 -1.27512237 0.29704981
C  -0.61763732 -1.26328092 0.27572307
C  0.01041297 -0.34752780 1.38910459
C  -0.21437372 1.05577617 0.94334513
C  -0.04254641 -0.39725119 1.37457542
C  -0.85677500 1.07581301 -0.40160327
60
MD Step 4 Units = [eV / Ang.]
C  0.90392906 -0.90593398 0.23534145
C  0.88902092 -0.85450946 0.41350525
C  1.08166345 0.17774075 0.69954250
C  1.12921410 0.30288758 0.57005086
C  1.21178400 0.00335138 -0.47308530
C  1.17905529 -0.17375888 -0.52178761
C  0.76901279 -1.02937381 0.20035364
C  0.67157928 -1.05470215 0.35691379
C  0.74663452 -0.94708958 0.48889521
C  0.10175900 -0.45308862 1.21477698
C  0.97186608 0.26160532 0.82314054
C  1.04862131 0.46517568 0.61493558
C  0.65716509 1.10937426 -0.17035927
C  0.67094545 1.05733011 -0.34767731
C  1.14472376 0.11263975 -0.60693441
C  1.07051658 0.00425858 -0.73791521
C  1.09154702 -0.17211624 -0.68472886
C  0.30641973 -0.89751345 -0.89027929
C  0.25872703 -1.02244722 -0.76129915
C  -0.40666216 -1.19542342 0.31179968
C  -0.49350742 -1.19419513 0.14742466
C  0.07488962 -1.04640822 -0.76943917
C  0.00784815 -0.93609513 -0.90281990
C  0.15110938 -0.84362765 -0.97795354
C  0.02832469 0.19299149 -1.28662539
C  0.16220659 0.31625972 -1.25059746
C  0.08211741 0.47761476 -1.20667706
C  0.51662487 1.11205142 -0.43629972
C  0.95029139 0.43860367 0.77003206
C  -0.76894242 1.02937020 -0.20001974
C  -0.25903910 1.02240625 0.76119332
C  -0.30638971 0.89752364 0.89022706
C  -1.09151057 0.17211297 0.68473811
C  -1.17904394 0.17376210 0.52178477
C  -0.88906552 0.85448875 -0.41352375
C  -0.74665453 0.94706426 -0.48892173
C  -0.67152874 1.05470154 -0.35697680
C  0.40671153 1.19537640 -0.31178822
C  0.49355602 1.19419478 -0.14744190
C  -0.07482308 1.04641423 0.76943058
C  -0.15111026 0.84362909 0.97795487
C  -0.02834266 -0.19298993 1.28667579
C  -0.16225093 -0.31628475 1.25039329
C  -1.07048140 -0.00427409 0.73795333
C  -1.14464652 -0.11268210 0.60691317
C  -1.21177010 -0.00336365 0.47309951
C  -1.12926087 -0.30289823 -0.57004969
C  -1.08145004 -0.17773887 -0.69960552
C  -0.10175003 0.45308658 -1.21477612
C  -0.13577068 0.27737384 -1.26292355
C  -0.97191710 -0.26158048 -0.82312911
C  -0.95028727 -0.43858770 -0.77003276
C  -1.04862568 -0.46516465 -0.61495326
C  -0.65711999 -1.10938644 0.17031655
C  -0.67081224 -1.05734131 0.34805839
C  -0.51698759 -1.11181160 0.43600879
C  -0.08210748 -0.47765388 1.20674577
C  -0.00783853 0.93609567 0.90283419
C  0.13574436 -0.27737761 1.26294316
C  -0.90391189 0.90593345 -0.23536202
60
MD Step 5 Units = [eV / Ang.]
C  0.95163995 -0.70349398 0.04202963
C  0.91662361 -0.57877949 0.47511161
C  1.00916203 -0.08257043 0.61246255
C  1.12392462 0.22157805 0.29812522
C  1.16364404 0.07764863 -0.20321031
C  1.08380905 -0.35152403 -0.32179049
C  0.62479903 -1.00409793 -0.04293658
C  0.38864589 -1.06552961 0.33759736
C  0.56949615 -0.80297754 0.65815021
C  0.25960832 -0.56539411 1.00655623
C  0.74204579 0.12181088 0.91350262
C  0.92766314 0.61456846 0.40600127
C  0.73926029 0.92387927 0.02847563
C  0.77320261 0.79857575 -0.40406562
C  1.00102466 0.34486100 -0.52890052
C  0.82048781 0.08164918 -0.84850789
C  0.87151416 -0.34832197 -0.72007886
C  0.49438574 -0.69698337 -0.81917724
C  0.37958749 -1.00088016 -0.50518087
C  -0.12968704 -1.13323017 0.31587004
C  -0.34109303 -1.13022939 -0.08354886
C  -0.06803090 -1.05929600 -0.52420430
C  -0.23027243 -0.79128355 -0.84952321
C  0.11730089 -0.56692587 -1.03213163
C  0.05808857 -0.06903947 -1.18071133
C  0.38417397 0.23156788 -1.09474147
C  0.18809340 0.62407086 -0.98771121
C  0.39700855 0.92930587 -0.61770718
C  0.69065527 0.55203818 0.78524187
C  -0.62480927 1.00407676 0.04305436
C  -0.37974154 1.00084942 0.50522105
C  -0.49438722 0.69697168 0.81913072
C  -0.87146819 0.34832656 0.72009340
C  -1.08379734 0.35152090 0.32178498
C  -0.91664157 0.57879299 -0.47512077
C  -0.56952442 0.80297216 -0.65814121
C  -0.38860261 1.06552546 -0.33761447
C  0.12967256 1.13319401 -0.31589211
C  0.34113983 1.13022413 0.08356527
C  0.06806047 1.05929905 0.52417851
C  -0.11729360 0.56692823 1.03212938
C  -0.05811543 0.06904606 1.18075130
C  -0.38414503 -0.23160962 1.09458718
C  -0.82051490 -0.08165768 0.84848990
C  -1.00095486 -0.34485572 0.52892341
C  -1.16362848 -0.07766788 0.20320691
C  -1.12396357 -0.22156769 -0.29812290
C  -1.00899890 0.08255881 -0.61248705
C  -0.25959434 0.56537661 -1.00656924
C  -0.34025877 0.13718691 -1.12500748
C  -0.74206223 -0.12179479 -0.91351808
C  -0.69063751 -0.55203279 -0.78524696
C  -0.92765943 -0.61458092 -0.40599289
C  -0.73922351 -0.92387464 -0.02849231
C  -0.77315068 -0.79859459 0.40429596
C  -0.39719381 -0.92908310 0.61755352
C  -0.18813738 -0.62413079 0.98772068
C  0.23025733 0.79129846 0.84952877
C  0.34023061 -0.13718995 1.12502890
C  -0.95161783 0.70349503 -0.04203541
60
MD Step 6 Units = [eV / Ang.]
C  0.99097207 -0.48138250 -0.16272322
C  0.93511978 -0.28067915 0.53467337
C  0.92080335 -0.35667672 0.51330096
C  1.10524841 0.13307556 0.00731380
C  1.09922397 0.15524851 0.08433143
C  0.97054183 -0.53526823 -0.10670261
C  0.46512871 -0.96569476 -0.29952190
C  0.08514345 -1.06456036 0.31325692
C  0.37567301 -0.64133930 0.82933908
C  0.42338388 -0.67749160 0.77479770
C  0.49056062 -0.02731477 0.99834125
C  0.78904437 0.76527394 0.18048572
C  0.81740167 0.71710693 0.23825421
C  0.87225001 0.51586375 -0.45894318
C  0.83752146 0.58622178 -0.44028573
C  0.54672963 0.16247530 -0.95548339
C  0.62885642 -0.53046266 -0.74904820
C  0.68725020 -0.47696509 -0.73450291
C  0.50288007 -0.96643472 -0.22865376
C  0.16450462 -1.05431350 0.31648893
C  -0.17606356 -1.04947287 -0.32664534
C  -0.21825835 -1.06057979 -0.25895572
C  -0.47919318 -0.62904715 -0.78331645
C  0.08020584 -0.26794385 -1.07735883
C  0.08885860 -0.34511514 -1.05503960
C  0.61424662 0.13938045 -0.91730060
C  0.29788332 0.77156072 -0.74482876
C  0.26598619 0.72537331 -0.80220387
C  0.40826812 0.66546787 0.79217304
C  -0.46522774 0.96565722 0.29940085
C  -0.50285938 0.96641669 0.22885475
C  -0.68728394 0.47693030 0.73446620
C  -0.62880319 0.53047475 0.74906586
C  -0.97052912 0.53526008 0.10669440
C  -0.93510906 0.28072916 -0.53467194
C  -0.37570891 0.64135476 -0.82929498
C  -0.08511299 1.06455156 -0.31322314
C  -0.16458180 1.05429146 -0.31654398
C  0.17610723 1.04946288 0.32669358
C  0.21824623 1.06057842 0.25891471
C  -0.08019015 0.26794852 1.07735187
C  -0.08889517 0.34512464 1.05506709
C  -0.61414043 -0.13943747 0.91720493
C  -0.54682078 -0.16247437 0.95540775
C  -0.83746465 -0.58616591 0.44035196
C  -1.09920632 -0.15527474 -0.08435257
C  -1.10527655 -0.13304540 -0.00731179
C  -0.92069694 0.35665002 -0.51328497
C  -0.42336579 0.67745778 -0.77482461
C  -0.55235821 -0.01254070 -0.96618067
C  -0.49054176 0.02732064 -0.99838353
C  -0.40823868 -0.66547371 -0.79218112
C  -0.78903222 -0.76530992 -0.18045071
C  -0.81737444 -0.71708335 -0.23824042
C  -0.87228584 -0.51589100 0.45900728
C  -0.26597752 -0.72517242 0.80220155
C  -0.29798205 -0.77164420 0.74477018
C  0.47915461 0.62907630 0.78331291
C  0.55233071 0.01253892 0.96620236
C  -0.99094624 0.48138311 0.16273390
60
MD Step 7 Units = [eV / Ang.]
C  1.01186101 -0.25547595 -0.36019690
C  0.93661879 0.01602274 0.58346315
C  0.81799231 -0.61858351 0.40712955
C  1.06734719 0.04410604 -0.27740152
C  1.01666538 0.22842123 0.36422563
C  0.84246782 -0.70556924 0.10568784
C  0.30061234 -0.91096249 -0.54529799
C  -0.21337706 -1.04470397 0.28387684
C  0.17931970 -0.47176941 0.98213406
C  0.57613405 -0.77517006 0.53423138
C  0.23575276 -0.17275104 1.06362665
C  0.63938476 0.89916037 -0.04341749
C  0.87935630 0.50202351 0.43931638
C  0.95368471 0.23005909 -0.50449680
C  0.66264784 0.81199744 -0.34575043
C  0.26912470 0.23868409 -1.04319616
C  0.38022369 -0.69928904 -0.76409838
C  0.86377831 -0.25318420 -0.63859893
C  0.61460668 -0.91556484 0.04602145
C  0.44948364 -0.95836476 0.31147295
C  -0.01143957 -0.95180689 -0.55874082
C  -0.36138995 -1.04300504 0.00522153
C  -0.71425798 -0.45911137 -0.70462300
C  0.04247864 0.02938235 -1.10248219
C  0.11738937 -0.60914713 -0.91331962
C  0.82847964 0.04669432 -0.72737342
C  0.40002988 0.90219314 -0.49391483
C  0.13304331 0.51291888 -0.96850668
C  0.12468766 0.76464938 0.78489255
C  -0.30079746 0.91091130 0.54494068
C  -0.61441185 0.91556195 -0.04566440
C  -0.86384069 0.25312761 0.63857518
C  -0.38016688 0.69930621 0.76411811
C  -0.84245424 0.70555549 -0.10569829
C  -0.93657990 -0.01593837 -0.58345243
C  -0.17936079 0.47180579 -0.98205738
C  0.21339085 1.04469013 -0.28379418
C  -0.44961905 0.95835879 -0.31155524
C  0.01147667 0.95179283 0.55881718
C  0.36133699 1.04299895 -0.00527421
C  -0.04245623 -0.02937783 1.10247158
C  -0.11743356 0.60916006 0.91333328
C  -0.82830109 -0.04676396 0.72733719
C  -0.26927581 -0.23867205 1.04306682
C  -0.66260866 -0.81189153 0.34585532
C  -1.01664529 -0.22845367 -0.36426333
C  -1.06736329 -0.04405812 0.27740364
C  -0.81794523 0.61854284 -0.40707262
C  -0.57611657 0.77512004 -0.53427110
C  -0.75008982 -0.15883425 -0.79360685
C  -0.23569861 0.17274567 -1.06369475
C  -0.12464889 -0.76466490 -0.78490322
C  -0.63936424 -0.89921807 0.04347871
C  -0.87933896 -0.50198193 -0.43927038
C  -0.95380773 -0.23009409 0.50439151
C  -0.13284003 -0.51274639 0.96865146
C  -0.40017587 -0.90229787 0.49379144
C  0.71419944 0.45915293 0.70461057
C  0.75006465 0.15883336 0.79362783
C  -1.01183379 0.25547543 0.36022308
60
MD Step 8 Units = [eV / Ang.]
C  1.00380445 -0.04361606 -0.52980791
C  0.91298503 0.28488866 0.61216984
C  0.70285632 -0.83979087 0.29987093
C  1.00445940 -0.03781687 -0.52841363
C  0.91460109 0.28872253 0.60855852
C  0.70374397 -0.84130032 0.29566219
C  0.14326295 -0.83696575 -0.75381764
C  -0.47863610 -0.99879126 0.24963579
C  -0.00369047 -0.30526890 1.09459047
C  0.69939638 -0.84315179 0.30161686
C  -0.00181233 -0.30013104 1.09448305
C  0.48648860 0.99666891 -0.24549778
C  0.91211875 0.29340485 0.61009357
C  1.00213600 -0.03546371 -0.53238369
C  0.48624223 0.99523748 -0.25071990
C  0.00998198 0.30148077 -1.09495473
C  0.14440321 -0.83386745 -0.75737279
C  1.00093613 -0.04331037 -0.53450963
C  0.69961627 -0.84495550 0.29410640
C  0.69615843 -0.84569966 0.29860315
C  0.13828285 -0.83775421 -0.75448346
C  -0.48165026 -0.99921790 0.24486520
C  -0.90852613 -0.29261094 -0.61439803
C  0.00710224 0.29844205 -1.09585109
C  0.14014878 -0.83253050 -0.76030741
C  1.00080325 -0.03867401 -0.53558358
C  0.48205772 0.99668366 -0.25298859
C  0.00882878 0.30638661 -1.09359517
C  -0.13601634 0.83426120 0.75734246
C  -0.14352060 0.83690543 0.75325031
C  -0.69926137 0.84496986 -0.29361816
C  -1.00101928 0.04323559 0.53450370
C  -0.14435037 0.83388589 0.75739012
C  -0.70372921 0.84128116 -0.29567383
C  -0.91292122 -0.28477656 -0.61215147
C  0.00364826 0.30532295 -1.09448840
C  0.47862544 0.99877157 -0.24950812
C  -0.69633820 0.84571131 -0.29870434
C  -0.13825482 0.83773765 0.75457982
C  0.48155700 0.99920633 -0.24492395
C  -0.00707459 -0.29843648 1.09583757
C  -0.14019706 0.83254282 0.76030656
C  -1.00056597 0.03859653 0.53560296
C  -0.01017948 -0.30145832 1.09478366
C  -0.48622447 -0.99508826 0.25085423
C  -0.91457920 -0.28875823 -0.60860969
C  -1.00446123 0.03787794 0.52841407
C  -0.70286707 0.83974075 -0.29977489
C  -0.69938306 0.84308983 -0.30166489
C  -0.90951695 -0.28737070 -0.61580402
C  0.00189656 0.30011190 -1.09457219
C  0.13606114 -0.83428513 -0.75735425
C  -0.48646123 -0.99674372 0.24558222
C  -0.91211163 -0.29334737 -0.61001535
C  -1.00234316 0.03542492 0.53211550
C  -0.00844304 -0.30625272 1.09387228
C  -0.48223852 -0.99680141 0.25281059
C  0.90845188 0.29266189 0.61437743
C  0.90949679 0.28737154 0.61582181
C  -1.00377851 0.04361341 0.52984734
60
MD Step 9 Units = [eV / Ang.]
C  0.95680819 0.13623556 -0.65116633
C  0.85655354 0.49950882 0.61178215
C  0.57792688 -0.99212742 0.19764773
C  0.91135670 -0.10516079 -0.71827131
C  0.79217119 0.32782496 0.78961316
C  0.55894596 -0.92169467 0.44356692
C  0.00523610 -0.74122473 -0.89892053
C  -0.68247316 -0.92017652 0.21085252
C  -0.15740259 -0.15306682 1.14526370
C  0.77500669 -0.86655506 0.09396966
C  -0.20146505 -0.39518267 1.07657335
C  0.33847497 1.03869781 -0.40557589
C  0.90312891 0.10626958 0.72924692
C  1.00272267 -0.25723723 -0.53451992
C  0.31846549 1.10941804 -0.16078303
C  -0.20827301 0.34219378 -1.09460121
C  -0.05963893 -0.91362321 -0.72139870
C  1.07613093 0.13486931 -0.42559569
C  0.74307312 -0.75174830 0.49089978
C  0.87567320 -0.71711026 0.27581827
C  0.25861307 -0.70831278 -0.88881911
C  -0.56345420 -0.92238823 0.43653426
C  -1.03542964 -0.14089992 -0.51394643
C  -0.02292152 0.51265401 -1.04637156
C  0.15366330 -0.98697861 -0.60121026
C  1.10557935 -0.10889088 -0.35290856
C  0.53169894 1.03620937 -0.04030272
C  -0.09595085 0.12046732 -1.15494714
C  -0.34973139 0.85937368 0.70385951
C  -0.00554329 0.74115924 0.89819513
C  -0.74258846 0.75178232 -0.49032545
C  -1.07622491 -0.13495582 0.42561135
C  0.05967874 0.91363735 0.72140912
C  -0.55892957 0.92167118 -0.44357747
C  -0.85647063 -0.49937808 -0.61175793
C  0.15736546 0.15313523 -1.14514612
C  0.68243242 0.92015044 -0.21068828
C  -0.87588109 0.71714088 -0.27592882
C  -0.25859655 0.70829474 0.88892712
C  0.56332368 0.92237134 -0.43659321
C  0.02295199 -0.51264938 1.04635634
C  -0.15371230 0.98698847 0.60119495
C  -1.10530268 0.10881209 0.35297629
C  0.20804777 -0.34216227 1.09440397
C  -0.31847247 -1.10923601 0.16093453
C  -0.79214787 -0.32786073 -0.78967207
C  -0.91134253 0.10522935 0.71826683
C  -0.57799222 0.99207203 -0.19751555
C  -0.77500168 0.86648495 -0.09402109
C  -1.00709074 -0.38391578 -0.44167785
C  0.20157233 0.39514803 -1.07667742
C  0.34977497 -0.85940328 -0.70387017
C  -0.33844250 -1.03878358 0.40567757
C  -0.90313192 -0.10619868 -0.72913604
C  -1.00300582 0.25719876 0.53410344
C  0.09649396 -0.12038547 1.15532776
C  -0.53189741 -1.03632607 0.04008928
C  1.03535015 0.14095528 0.51391931
C  1.00707978 0.38391977 0.44168980
C  -0.95678548 -0.13624043 0.65121516
60
MD Step 10 Units = [eV / Ang.]
C  0.86259856 0.26851435 -0.70681999
C  0.76103253 0.63712096 0.57472662
C  0.44565935 -1.05151506 0.10587511
C  0.78389169 -0.15141806 -0.82340608
C  0.64897630 0.33862962 0.88362340
C  0.41229826 -0.92909603 0.53249677
C  -0.10288944 -0.62190671 -0.95824229
C  -0.80068820 -0.80348309 0.16789674
C  -0.26800423 -0.02500005 1.11600073
C  0.78750111 -0.83281074 -0.07386265
C  -0.34531277 -0.44566758 0.99790006
C  0.20255632 1.00908694 -0.50627534
C  0.84185645 -0.04627082 0.77853360
C  0.94293676 -0.41495584 -0.50410785
C  0.16829593 1.13194986 -0.08087581
C  -0.36621904 0.35343211 -1.02855766
C  -0.21542714 -0.92105956 -0.64999097
C  1.07018169 0.26593988 -0.31496728
C  0.73239627 -0.63378738 0.61512600
C  0.96330761 -0.57360067 0.24144813
C  0.33705474 -0.56466113 -0.94033853
C  -0.59349035 -0.80697872 0.56002299
C  -1.07231320 -0.01392032 -0.40462801
C  -0.04499021 0.64912355 -0.94485266
C  0.15498248 -1.04832227 -0.44082364
C  1.12098606 -0.15718685 -0.18905305
C  0.53851760 1.00484823 0.12824149
C  -0.17202113 -0.03200666 -1.13347218
C  -0.49563152 0.82737688 0.61982504
C  0.10256691 0.62184310 0.95743069
C  -0.73182429 0.63384280 -0.61452839
C  -1.07027531 -0.26603138 0.31500959
C  0.21544543 0.92106495 0.64998870
C  -0.41228074 0.92906804 -0.53250348
C  -0.76093529 -0.63698436 -0.57469898
C  0.26797896 0.02507631 -1.11588059
C  0.80060981 0.80344964 -0.16770585
C  -0.96352226 0.57365297 -0.24155420
C  -0.33705267 0.56464397 0.94044584
C  0.59332725 0.80695555 -0.56007369
C  0.04502058 -0.64912119 0.94483784
C  -0.15502731 1.04832571 0.44079277
C  -1.12070232 0.15711886 0.18915872
C  0.36599604 -0.35339559 1.02835694
C  -0.16833119 -1.13175036 0.08102990
C  -0.64895231 -0.33866093 -0.88368359
C  -0.78385904 0.15148671 0.82339427
C  -0.44577540 1.05146166 -0.10571384
C  -0.78751155 0.83274028 0.07381552
C  -1.02277323 -0.43625507 -0.27916855
C  0.34543379 0.44561583 -0.99800983
C  0.49566824 -0.82740957 -0.61983241
C  -0.20252108 -1.00917346 0.50638475
C  -0.84186893 0.04634955 -0.77839019
C  -0.94328487 0.41492558 0.50356367
C  0.17268695 0.03201554 1.13391957
C  -0.53870761 -1.00494569 -0.12846753
C  1.07223699 0.01397527 0.40459537
C  1.02277461 0.43626269 0.27917100
C  -0.86258263 -0.26852226 0.70687328
60
MD Step 11 Units = [eV / Ang.]
C  0.71598027 0.34273930 -0.68522144
C  0.62252431 0.68252464 0.49612915
C  0.30796745 -1.00206970 0.02830493
C  0.61964159 -0.17222937 -0.82815943
C  0.48507974 0.31646894 0.87482195
C  0.26690070 -0.85193424 0.55118902
C  -0.17394970 -0.47808966 -0.91701649
C  -0.81717362 -0.64545953 0.12110607
C  -0.32621681 0.07220865 0.99500038
C  0.72674319 -0.73378085 -0.19179015
C  -0.42132676 -0.44346244 0.85079500
C  0.08375682 0.89733268 -0.53599826
C  0.72155730 -0.15529083 0.74590326
C  0.81474059 -0.49498688 -0.43676522
C  0.04195118 1.04801041 -0.01440222
C  -0.45080304 0.33033274 -0.88809942
C  -0.31182970 -0.84471491 -0.53926696
C  0.97055794 0.33952316 -0.20491174
C  0.65937562 -0.48993360 0.65258597
C  0.94268476 -0.41615837 0.19447556
C  0.36526089 -0.40789946 -0.89492219
C  -0.56298140 -0.64963084 0.60183615
C  -1.00427319 0.08153770 -0.28758080
C  -0.05735202 0.69256420 -0.78551649
C  0.14217116 -1.00060902 -0.28264747
C  1.03272375 -0.17903013 -0.05073965
C  0.49566676 0.89225664 0.24186024
C  -0.21314937 -0.14228372 -1.01673464
C  -0.55976342 0.73009476 0.50241291
C  0.17365012 0.47803338 0.91621036
C  -0.65877437 0.49001032 -0.65203928
C  -0.97064018 -0.33961152 0.20498080
C  0.31181963 0.84470797 0.53924964
C  -0.26688244 0.85190325 -0.55119100
C  -0.62242284 -0.68239685 -0.49610399
C  0.32620850 -0.07212913 -0.99488835
C  0.81705712 0.64541858 -0.12090464
C  -0.94288405 0.41622838 -0.19456696
C  -0.36527628 0.40788540 0.89502067
C  0.56279597 0.64960346 -0.60187448
C  0.05738090 -0.69256596 0.78550445
C  -0.14220639 1.00060376 0.28260330
C  -1.03246165 0.17898137 0.05086553
C  0.45060780 -0.33029671 0.88791761
C  -0.04201166 -1.04781157 0.01454469
C  -0.48505726 -0.31649131 -0.87488088
C  -0.61959259 0.17229184 0.82814016
C  -0.30812159 1.00202717 -0.02811957
C  -0.72677064 0.73371789 0.19175372
C  -0.94342171 -0.43628455 -0.13383903
C  0.42145122 0.44339320 -0.85090352
C  0.55978662 -0.73012656 -0.50241480
C  -0.08372155 -0.89741375 0.53610785
C  -0.72157790 0.15537261 -0.74573462
C  -0.81513585 0.49496928 0.43613039
C  0.21388645 0.14221227 1.01719933
C  -0.49582542 -0.89231682 -0.24206721
C  1.00421082 -0.08149056 0.28754618
C  0.94343768 0.43629491 0.13383017
C  -0.71597351 -0.34275001 0.68527543
60
MD Step 12 Units = [eV / Ang.]
C  0.51614935 0.35571956 -0.58330446
C  0.44053876 0.63135472 0.37499372
C  0.16594512 -0.83964137 -0.03369665
C  0.41863949 -0.16631285 -0.72822579
C  0.30119176 0.26016607 0.75892471
C  0.12421112 -0.68737227 0.49646764
C  -0.20567659 -0.31012239 -0.77137014
C  -0.72744470 -0.44588139 0.07077079
C  -0.32924077 0.13630874 0.77954055
C  0.59020973 -0.56764295 -0.25654838
C  -0.42588189 -0.38635879 0.63377602
C  -0.01604337 0.70103417 -0.49143011
C  0.54088310 -0.21788066 0.62818555
C  0.61646813 -0.49325847 -0.33157504
C  -0.05833467 0.85388839 0.03742067
C  -0.45808974 0.27166386 -0.67142589
C  -0.34538496 -0.68176428 -0.38861985
C  0.77424864 0.35245566 -0.09651635
C  0.52206907 -0.32047945 0.59922360
C  0.80939862 -0.24571582 0.13482262
C  0.34082094 -0.23898812 -0.74889391
C  -0.46965414 -0.45008703 0.55809492
C  -0.82751634 0.14320042 -0.16360698
C  -0.05947440 0.63861970 -0.56745614
C  0.11475884 -0.83967748 -0.12831211
C  0.83724494 -0.17308472 0.05961454
C  0.40145196 0.69606956 0.29711247
C  -0.21744601 -0.20749967 -0.80181421
C  -0.53803224 0.56569643 0.35133378
C  0.20543673 0.31008014 0.77065846
C  -0.52149470 0.32057721 -0.59879985
C  -0.77430960 -0.35253472 0.09661383
C  0.34534074 0.68174351 0.38858348
C  -0.12419271 0.68733798 -0.49646293
C  -0.44044196 -0.63125233 -0.37497338
C  0.32925649 -0.13623229 -0.77945105
C  0.72729339 0.44583466 -0.07057284
C  -0.80956139 0.24580223 -0.13488672
C  -0.34085644 0.23897899 0.74897053
C  0.46945682 0.45005539 -0.55811305
C  0.05949879 -0.63862722 0.56744908
C  -0.11477904 0.83966268 0.12825536
C  -0.83703597 0.17306355 -0.05948165
C  0.45795034 -0.27163223 0.67128560
C  0.05824845 -0.85371033 -0.03730587
C  -0.30117192 -0.26017516 -0.75897510
C  -0.41857285 0.16636178 0.72819813
C  -0.16612838 0.83961780 0.03389520
C  -0.59025694 0.56759451 0.25652946
C  -0.76577258 -0.38177247 -0.00782329
C  0.42599904 0.38627411 -0.63387289
C  0.53803569 -0.56572545 -0.35132716
C  0.01607757 -0.70110153 0.49153083
C  -0.54091278 0.21796130 -0.62800095
C  -0.61689076 0.49326128 0.33088673
C  0.21820273 0.20733405 0.80225178
C  -0.40155611 -0.69607289 -0.29727411
C  0.82747714 -0.14316585 0.16357159
C  0.76580483 0.38178496 0.00780095
C  -0.51615437 -0.35573327 0.58335426
60
MD Step 13 Units = [eV / Ang.]
C  0.26770716 0.31267842 -0.40795006
C  0.21883621 0.49186523 0.21498100
C  0.01999886 -0.57391289 -0.08143080
C  0.18408238 -0.13595869 -0.53256388
C  0.09906795 0.17266103 0.54509018
C  -0.01596623 -0.44291916 0.37459860
C  -0.20141652 -0.12011645 -0.53025336