60
MD Step 0 Units = [Angstroms]
C  -2.96219017 2.11017017 -0.06479000
C  -2.84897017 1.69937017 -1.49226000
C  -3.10217017 0.34396017 -1.86797000
C  -3.47934017 -0.65812983 -0.83219000
C  -3.58792017 -0.26404983 0.53723000
C  -3.32398017 1.14884017 0.92888000
C  -1.88684017 3.10235017 0.21536000
C  -1.10906017 3.30478017 -1.03897000
C  -1.70372017 2.43771017 -2.09435000
C  -0.85822017 1.79058017 -3.04767000
C  -2.22085017 -0.33054983 -2.86170000
C  -2.83112017 -1.95198983 -1.18582000
C  -2.31780017 -2.79908983 -0.15561000
C  -2.43096017 -2.38825983 1.27184000
C  -3.05283017 -1.14705983 1.61109000
C  -2.45819017 -0.27993983 2.66641000
C  -2.62576017 1.13898017 2.24477000
C  -1.59421017 2.09085017 2.51357000
C  -1.21706017 3.09292017 1.47779000
C  0.30683983 3.48954017 -0.97986000
C  1.00499983 3.47969017 0.33609000
C  0.25885983 3.28550017 1.53942000
C  0.79389983 2.40243017 2.61326000
C  -0.35136017 1.66409017 3.21534000
C  -0.19060017 0.30286017 3.61984000
C  -1.26589017 -0.68932983 3.33964000
C  -0.61770017 -1.98316983 2.98605000
C  -1.18815017 -2.81504983 1.97364000
C  -2.05328017 -1.74948983 -2.44008000
C  1.88683983 -3.10234983 -0.21537000
C  1.21706983 -3.09291983 -1.47779000
C  1.59420983 -2.09084983 -2.51357000
C  2.62575983 -1.13897983 -2.24477000
C  3.32397983 -1.14883983 -0.92888000
C  2.84896983 -1.69936983 1.49226000
C  1.70371983 -2.43770983 2.09435000
C  1.10905983 -3.30477983 1.03897000
C  -0.30684017 -3.48953983 0.97986000
C  -1.00500017 -3.47968983 -0.33609000
C  -0.25886017 -3.28549983 -1.53942000
C  0.35135983 -1.66408983 -3.21534000
C  0.19059983 -0.30285983 -3.61984000
C  1.26588983 0.68933017 -3.33963000
C  2.45818983 0.27994017 -2.66641000
C  3.05282983 1.14706017 -1.61109000
C  3.58791983 0.26405017 -0.53723000
C  3.47933983 0.65813017 0.83219000
C  3.10215983 -0.34395983 1.86797000
C  0.85821983 -1.79057983 3.04767000
C  1.12219983 -0.37773983 3.43932000
C  2.22084983 0.33055017 2.86170000
C  2.05327983 1.74949017 2.44008000
C  2.83111983 1.95199017 1.18582000
C  2.31779983 2.79909017 0.15561000
C  2.43095983 2.38826017 -1.27185000
C  1.18815983 2.81504017 -1.97363000
C  0.61769983 1.98317017 -2.98605000
C  -0.79390017 -2.40242983 -2.61326000
C  -1.12220017 0.37774017 -3.43932000
C  2.96218983 -2.11016983 0.06479000
60
MD Step 1 Units = [Angstroms]
C  -2.96187618 2.10964499 -0.06453521
C  -2.84864511 1.69880349 -1.49214983
C  -3.10168544 0.34424875 -1.86762271
C  -3.47889335 -0.65794279 -0.83173796
C  -3.58740496 -0.26411101 0.53681767
C  -3.32343816 1.14892162 0.92850737
C  -1.88641761 3.10192565 0.21564312
C  -1.10855910 3.30437610 -1.03881393
C  -1.70327869 2.43721794 -2.09430083
C  -0.85831307 1.79049713 -3.04701899
C  -2.22027612 -0.33032976 -2.86145355
C  -2.83060763 -1.95193325 -1.18540336
C  -2.31761178 -2.79849922 -0.15584399
C  -2.43078334 -2.38762797 1.27175124
C  -3.05226085 -1.14721105 1.61078660
C  -2.45756049 -0.28000326 2.66621395
C  -2.62514748 1.13906096 2.24453150
C  -1.59424823 2.09032990 2.51316143
C  -1.21706047 3.09250149 1.47727634
C  0.30644756 3.48901955 -0.97974128
C  1.00467830 3.47916854 0.33634203
C  0.25900939 3.28510108 1.53891230
C  0.79410321 2.40194164 2.61286149
C  -0.35127253 1.66352694 3.21500246
C  -0.19061410 0.30315618 3.61924688
C  -1.26601333 -0.68913470 3.33901899
C  -0.61775714 -1.98310592 2.98539311
C  -1.18784717 -2.81446048 1.97362166
C  -2.05268950 -1.74941343 -2.43979114
C  1.88641737 -3.10192531 -0.21565281
C  1.21706988 -3.09250118 -1.47727650
C  1.59424794 -2.09032954 -2.51316145
C  2.62514715 -1.13906063 -2.24453150
C  3.32343783 -1.14892128 -0.92850737
C  2.84864474 -1.69880319 1.49214981
C  1.70327835 -2.43721763 2.09430079
C  1.10855879 -3.30437576 1.03881386
C  -0.30644782 -3.48901925 0.97974131
C  -1.00467862 -3.47916821 -0.33634206
C  -0.25900966 -3.28510074 -1.53891229
C  0.35127219 -1.66352660 -3.21500246
C  0.19061377 -0.30315584 -3.61924685
C  1.26601292 0.68913504 -3.33900911
C  2.45756022 0.28000358 -2.66621389
C  3.05226056 1.14721132 -1.61078664
C  3.58740463 0.26411135 -0.53681765
C  3.47889299 0.65794310 0.83173797
C  3.10167524 -0.34424841 1.86762266
C  0.85831274 -1.79049679 3.04701900
C  1.12231866 -0.37751325 3.43870924
C  2.22027574 0.33033011 2.86145358
C  2.05268915 1.74941378 2.43979114
C  2.83060729 1.95193361 1.18540333
C  2.31761147 2.79849953 0.15584394
C  2.43078313 2.38762831 -1.27176095
C  1.18785654 2.81445092 -1.97361190
C  0.61775686 1.98310626 -2.98539303
C  -0.79410352 -2.40194132 -2.61286148
C  -1.12231900 0.37751358 -3.43870924
C  2.96187585 -2.10964466 0.06453518
60
MD Step 2 Units = [Angstroms]
C  -2.96092719 2.10809118 -0.06379264
C  -2.84766524 1.69713368 -1.49181151
C  -3.10023773 0.34508487 -1.86658966
C  -3.47755154 -0.65739048 -0.83041214
C  -3.58586279 -0.26428599 0.53561090
C  -3.32182106 1.14914523 0.92741156
C  -1.88516518 3.10065324 0.21646487
C  -1.10708726 3.30316082 -1.03834733
C  -1.70197332 2.43575618 -2.09413302
C  -0.85857346 1.79023432 -3.04508778
C  -2.21857873 -0.32968516 -2.86070238
C  -2.82908212 -1.95174553 -1.18417641
C  -2.31703603 -2.79674678 -0.15652337
C  -2.43023994 -2.38576032 1.27147786
C  -3.05056745 -1.14763778 1.60988430
C  -2.45569835 -0.28018464 2.66561181
C  -2.62333284 1.13928276 2.24381074
C  -1.59434027 2.08879059 2.51194235
C  -1.21704704 3.09124615 1.47576348
C  0.30530186 3.48746278 -0.97938411
C  1.00373039 3.47760896 0.33707181
C  0.25944175 3.28390052 1.53741608
C  0.79468596 2.40049111 2.61167053
C  -0.35101326 1.66186760 3.21398191
C  -0.19065244 0.30401440 3.61747748
C  -1.26635702 -0.68855850 3.33717170
C  -0.61791573 -1.98289652 2.98344554
C  -1.18695104 -2.81271150 1.97354504
C  -2.05094569 -1.74917041 -2.43892147
C  1.88516521 -3.10065285 -0.21647365
C  1.21705570 -3.09124591 -1.47576411
C  1.59434009 -2.08879017 -2.51194245
C  2.62333252 -1.13928246 -2.24381075
C  3.32182075 -1.14914487 -0.92741156
C  2.84766474 -1.69713349 1.49181146
C  1.70197298 -2.43575595 2.09413286
C  1.10708703 -3.30316047 1.03834706
C  -0.30530191 -3.48746256 0.97938424
C  -1.00373064 -3.47760861 -0.33707194
C  -0.25944185 -3.28390017 -1.53741604
C  0.35101290 -1.66186727 -3.21398190
C  0.19065212 -0.30401408 -3.61747737
C  1.26635639 0.68855883 -3.33716219
C  2.45569826 0.28018493 -2.66561157
C  3.05056726 1.14763790 -1.60988448
C  3.58586247 0.26428634 -0.53561082
C  3.47755110 0.65739073 0.83041214
C  3.10022791 -0.34508450 1.86658943
C  0.85857312 -1.79023394 3.04508783
C  1.12265139 -0.37684913 3.43689064
C  2.21857820 0.32968556 2.86070249
C  2.05094532 1.74917080 2.43892148
C  2.82908175 1.95174596 1.18417630
C  2.31703579 2.79674703 0.15652321
C  2.43024010 2.38576065 -1.27148675
C  1.18695954 2.81270228 -1.97353596
C  0.61791559 1.98289685 -2.98344523
C  -0.79468620 -2.40049082 -2.61167048
C  -1.12265176 0.37684945 -3.43689062
C  2.96092686 -2.10809086 0.06379255
60
MD Step 3 Units = [Angstroms]
C  -2.95932259 2.10557233 -0.06262618
C  -2.84601680 1.69444926 -1.49122226
C  -3.09784602 0.34638183 -1.86489664
C  -3.47531087 -0.65649875 -0.82830117
C  -3.58330377 -0.26454977 0.53369813
C  -3.31915501 1.14945030 0.92565728
C  -1.88312757 3.09853627 0.21774437
C  -1.10473650 3.30112541 -1.03757491
C  -1.69985993 2.43336864 -2.09378717
C  -0.85894771 1.78975168 -3.04194036
C  -2.21583049 -0.32866177 -2.85941197
C  -2.82657908 -1.95137407 -1.18220637
C  -2.31604201 -2.79388938 -0.15758210
C  -2.42929218 -2.38273865 1.27099914
C  -3.04779259 -1.14826132 1.60840635
C  -2.45268253 -0.28045791 2.66456266
C  -2.62038481 1.13958542 2.24259239
C  -1.59442150 2.08629524 2.50993224
C  -1.21697791 3.08915629 1.47333382
C  0.30349393 3.48488479 -0.97878556
C  1.00220490 3.47502696 0.33820235
C  0.26010920 3.28188892 1.53501001
C  0.79556799 2.39812260 2.60970053
C  -0.35059297 1.65920105 3.21225524
C  -0.19070503 0.30534763 3.61456100
C  -1.26684572 -0.68762814 3.33414433
C  -0.61813986 -1.98248994 2.98027492
C  -1.18549944 -2.80985882 1.97334689
C  -2.04813137 -1.74872040 -2.43746201
C  1.88312802 -3.09853582 -0.21775170
C  1.21698537 -3.08915617 -1.47333516
C  1.59442150 -2.08629472 -2.50993246
C  2.62038452 -1.13958516 -2.24259241
C  3.31915471 -1.14944992 -0.92565727
C  2.84601611 -1.69444923 1.49122213
C  1.69985959 -2.43336853 2.09378683
C  1.10473640 -3.30112504 1.03757433
C  -0.30349364 -3.48488471 0.97878584
C  -1.00220506 -3.47502659 -0.33820264
C  -0.26010901 -3.28188854 -1.53500992
C  0.35059257 -1.65920073 -3.21225520
C  0.19070471 -0.30534732 -3.61456074
C  1.26684474 0.68762848 -3.33413541
C  2.45268273 0.28045815 -2.66456214
C  3.04779257 1.14826119 -1.60840674
C  3.58330347 0.26455012 -0.53369797
C  3.47531032 0.65649890 0.82830117
C  3.09783681 -0.34638140 1.86489615
C  0.85894737 -1.78975124 3.04194046
C  1.12312851 -0.37579328 3.43390429
C  2.21582972 0.32866224 2.85941220
C  2.04813097 1.74872087 2.43746204
C  2.82657868 1.95137461 1.18220614
C  2.31604189 2.79388955 0.15758175
C  2.42929292 2.38273898 -1.27100671
C  1.18550656 2.80985016 -1.97333890
C  0.61813994 1.98249027 -2.98027425
C  -0.79556812 -2.39812237 -2.60970042
C  -1.12312893 0.37579359 -3.43390423
C  2.95932227 -2.10557201 0.06262599
60
MD Step 4 Units = [Angstroms]
C  -2.95703105 2.10219101 -0.06113783
C  -2.84367932 1.69089238 -1.49034642
C  -3.09454219 0.34800137 -1.86258578
C  -3.47216695 -0.65530920 -0.82554701
C  -3.57974592 -0.26486253 0.53122085
C  -3.31548345 1.14974055 0.92334827
C  -1.88037706 3.09558168 0.21935263
C  -1.10165401 3.29825730 -1.03650473
C  -1.69702858 2.43012641 -2.09316952
C  -0.85935065 1.78898618 -3.03768043
C  -2.21214821 -0.32733277 -2.85752863
C  -2.82315656 -1.95073590 -1.17960119
C  -2.31458153 -2.79001924 -0.15891479
C  -2.42788102 -2.37869476 1.27028266
C  -3.04400588 -1.14895659 1.60639063
C  -2.44864006 -0.28078159 2.66300255
C  -2.61641423 1.13987348 2.24085314
C  -1.59438931 2.08294546 2.50716346
C  -1.21678669 3.08623691 1.47011959
C  0.30116945 3.48131124 -0.97794144
C  1.00018029 3.47144913 0.33961093
C  0.26093567 3.27905266 1.53182046
C  0.79662184 2.39490768 2.60697425
C  -0.35002879 1.65567004 3.20978714
C  -0.19075574 0.30701680 3.61054589
C  -1.26735952 -0.68638695 3.33001232
C  -0.61837225 -1.98180470 2.97599077
C  -1.18355310 -2.80599318 1.97292730
C  -2.04437949 -1.74799986 -2.43539969
C  1.88037804 -3.09558116 -0.21935811
C  1.21679261 -3.08623695 -1.47012184
C  1.59438955 -2.08294482 -2.50716384
C  2.61641399 -1.13987326 -2.24085316
C  3.31548318 -1.14974014 -0.92334825
C  2.84367838 -1.69089257 1.49034619
C  1.69702823 -2.43012646 2.09316895
C  1.10165409 -3.29825692 1.03650375
C  -0.30116875 -3.48131134 0.97794191
C  -1.00018032 -3.47144875 -0.33961141
C  -0.26093513 -3.27905224 -1.53182032
C  0.35002835 -1.65566972 -3.20978708
C  0.19075543 -0.30701650 -3.61054545
C  1.26735811 0.68638728 -3.33000419
C  2.44864061 0.28078176 -2.66300167
C  3.04400610 1.14895615 -1.60639127
C  3.57974565 0.26486288 -0.53122057
C  3.47216622 0.65530922 0.82554702
C  3.09453381 -0.34800088 1.86258495
C  0.85935029 -1.78898567 3.03768060
C  1.12363966 -0.37441898 3.42981594
C  2.21214715 0.32733335 2.85752902
C  2.04437903 1.74800041 2.43539974
C  2.82315611 1.95073656 1.17960079
C  2.31458158 2.79001929 0.15891419
C  2.42788250 2.37869507 -1.27028850
C  1.18355844 2.80598527 -1.97292073
C  0.61837261 1.98180501 -2.97598965
C  -0.79662184 -2.39490751 -2.60697406
C  -1.12364015 0.37441928 -3.42981584
C  2.95703076 -2.10219071 0.06113752
60
MD Step 5 Units = [Angstroms]
C  -2.95401488 2.09808362 -0.05946096
C  -2.84062916 1.68665070 -1.48913906
C  -3.09037133 0.34976321 -1.85971422
C  -3.46811782 -0.65387690 -0.82233608
C  -3.57521671 -0.26517254 0.52836452
C  -3.31086679 1.14989139 0.92062112
C  -1.87701019 3.09180194 0.22112132
C  -1.09803336 3.29454371 -1.03514845
C  -1.69359884 2.42612508 -2.09215984
C  -0.85967190 1.78785738 -3.03244685
C  -2.20768703 -0.32579417 -2.85498537
C  -2.81889353 -1.94972472 -1.17650320
C  -2.31259421 -2.78525993 -0.16038390
C  -2.42593195 -2.37380347 1.26928743
C  -3.03930164 -1.14956139 1.60388843
C  -2.44373960 -0.28110181 2.66085083
C  -2.61156879 1.14002344 2.23856497
C  -1.59411135 2.07887636 2.50368105
C  -1.21638799 3.08249793 1.46629527
C  0.29851918 3.47677945 -0.97684738
C  0.99776019 3.46691406 0.34113752
C  0.26182208 3.27537757 1.52801429
C  0.79768182 2.39094246 2.60352429
C  -0.34934350 1.65146296 3.20653506
C  -0.19078373 0.30884048 3.60549947
C  -1.26774314 -0.68489230 3.32487791
C  -0.61853875 -1.98073649 2.97073947
C  -1.18119272 -2.80123622 1.97215783
C  -2.03986601 -1.74692763 -2.43272009
C  1.87701176 -3.09180135 -0.22112468
C  1.21639210 -3.08249816 -1.46629851
C  1.59411184 -2.07887559 -2.50368164
C  2.61156863 -1.14002327 -2.23856498
C  3.31086657 -1.14989094 -0.92062110
C  2.84062793 -1.68665111 1.48913873
C  1.69359846 -2.42612530 2.09215901
C  1.09803367 -3.29454331 1.03514702
C  -0.29851803 -3.47677977 0.97684804
C  -0.99776004 -3.46691365 -0.34113821
C  -0.26182112 -3.27537711 -1.52801410
C  0.34934302 -1.65146265 -3.20653498
C  0.19078340 -0.30884020 -3.60549880
C  1.26774127 0.68489260 -3.32487073
C  2.44374054 0.28110189 -2.66084957
C  3.03930215 1.14956061 -1.60388934
C  3.57521648 0.26517289 -0.52836412
C  3.46811689 0.65387680 0.82233609
C  3.09036394 -0.34976266 1.85971300
C  0.85967154 -1.78785681 3.03244708
C  1.12404183 -0.37282244 3.42471529
C  2.20768563 0.32579487 2.85498593
C  2.03986552 1.74692829 2.43272015
C  2.81889303 1.94972553 1.17650263
C  2.31259445 2.78525986 0.16038303
C  2.42593427 2.37380376 -1.26929123
C  1.18119597 2.80122926 -1.97215291
C  0.61853937 1.98073674 -2.97073784
C  -0.79768166 -2.39094235 -2.60352400
C  -1.12404240 0.37282272 -3.42471514
C  2.95401461 -2.09808333 0.05946051
60
MD Step 6 Units = [Angstroms]
C  -2.95023590 2.09341263 -0.05775065
C  -2.83684429 1.68194548 -1.48755081
C  -3.08539172 0.35145853 -1.85635188
C  -3.46316787 -0.65226711 -0.81888654
C  -3.56975490 -0.26542023 0.52534565
C  -3.30538158 1.14976025 0.91763630
C  -1.87314272 3.08721745 0.22285530
C  -1.09410158 3.28997609 -1.03352160
C  -1.68971287 2.42148034 -2.09062244
C  -0.85978487 1.78627528 -3.02640678
C  -2.20263138 -0.32415811 -2.85170983
C  -2.81388713 -1.94822078 -1.17308007
C  -2.31001426 -2.77976036 -0.16182993
C  -2.42336302 -2.36827245 1.26796827
C  -3.03379525 -1.14988950 1.60096241
C  -2.43818185 -0.28135648 2.65801889
C  -2.60602511 1.13989399 2.23569961
C  -1.59343690 2.07424888 2.49954217
C  -1.21568489 3.07795677 1.46206637
C  0.29576532 3.47133946 -0.97550014
C  0.99506689 3.46147319 0.34259686
C  0.26265378 3.27085344 1.52378827
C  0.79855692 2.38634321 2.59939350
C  -0.34856424 1.64680183 3.20245566
C  -0.19076512 0.31060850 3.59950684
C  -1.26781857 -0.68321215 3.31886625
C  -0.61855435 -1.97916790 2.96469680
C  -1.17851428 -2.79573465 1.97089304
C  -2.03479930 -1.74541281 -2.42941109
C  1.87314487 -3.08721680 -0.22285644
C  1.21568708 -3.07795721 -1.46207057
C  1.59343765 -2.07424798 -2.49954300
C  2.60602507 -1.13989387 -2.23569961
C  3.30538141 -1.14975977 -0.91763629
C  2.83684276 -1.68194611 1.48755037
C  1.68971244 -2.42148074 2.09062136
C  1.09410214 -3.28997567 1.03351972
C  -0.29576373 -3.47134002 0.97550097
C  -0.99506653 -3.46147277 -0.34259774
C  -0.26265239 -3.27085293 -1.52378807
C  0.34856372 -1.64680152 -3.20245555
C  0.19076476 -0.31060822 -3.59950591
C  1.26781625 0.68321239 -3.31886015
C  2.43818315 0.28135648 -2.65801727
C  3.03379612 1.14988838 -1.60096358
C  3.56975472 0.26542056 -0.52534513
C  3.46316671 0.65226688 0.81888656
C  3.08538545 -0.35145793 1.85635025
C  0.85978453 -1.78627466 3.02640707
C  1.12417102 -0.37111612 3.41871313
C  2.20262964 0.32415894 2.85171054
C  2.03479878 1.74541357 2.42941116
C  2.81388659 1.94822172 1.17307933
C  2.31001473 2.77976017 0.16182877
C  2.42336623 2.36827270 -1.26796986
C  1.17851531 2.79572881 -1.97088989
C  0.61855522 1.97916805 -2.96469465
C  -0.79855664 -2.38634315 -2.59939312
C  -1.12417170 0.37111637 -3.41871290
C  2.95023568 -2.09341235 0.05775005
60
MD Step 7 Units = [Angstroms]
C  -2.94566269 2.08835628 -0.05617112
C  -2.83230998 1.67701588 -1.48553398
C  -3.07967435 0.35286752 -1.85257837
C  -3.45733222 -0.65055083 -0.81543168
C  -3.56341230 -0.26554337 0.52239490
C  -3.29911880 1.14919981 0.91456638
C  -1.86890280 3.08185912 0.22434877
C  -1.09010212 3.28455533 -1.03164377
C  -1.68552620 2.41632193 -2.08842010
C  -0.85955824 1.78415004 -3.01974622
C  -2.19718307 -0.32254421 -2.84763407
C  -2.80824865 -1.94610327 -1.16951271
C  -2.30677910 -2.77368649 -0.16308465
C  -2.42009489 -2.36232854 1.26628122
C  -3.02761798 -1.14974737 1.59768372
C  -2.43218645 -0.28148080 2.65442103
C  -2.59997792 1.13933911 2.23223392
C  -1.59221134 2.06923957 2.49481482
C  -1.21457856 3.07264118 1.45765474
C  0.29314383 3.46505469 -0.97389926
C  0.99223280 3.45519142 0.34379398
C  0.26331030 3.26547936 1.51935522
C  0.79904755 2.38124015 2.59463508
C  -0.34772077 1.64192653 3.19751278
C  -0.19067525 0.31209944 3.59266894
C  -1.26740132 -0.68142048 3.31211981
C  -0.61833103 -1.97698071 2.95805767
C  -1.17562292 -2.78965214 1.96898502
C  -2.02940592 -1.74336447 -2.42546723
C  1.86890545 -3.08185846 -0.22434778
C  1.21457884 -3.07264185 -1.45765974
C  1.59221232 -2.06923858 -2.49481592
C  2.59997803 -1.13933901 -2.23223388
C  3.29911868 -1.14919931 -0.91456637
C  2.83230817 -1.67701668 1.48553343
C  1.68552568 -2.41632250 2.08841881
C  1.09010296 -3.28455491 1.03164145
C  -0.29314186 -3.46505552 0.97390023
C  -0.99223219 -3.45519100 -0.34379501
C  -0.26330847 -3.26547881 -1.51935502
C  0.34772023 -1.64192622 -3.19751266
C  0.19067482 -0.31209916 -3.59266773
C  1.26739864 0.68142061 -3.31211486
C  2.43218804 0.28148071 -2.65441910
C  3.02761926 1.14974595 -1.59768509
C  3.56341219 0.26554365 -0.52239428
C  3.45733080 0.65055051 0.81543171
C  3.07966928 -0.35286689 1.85257633
C  0.85955793 -1.78414939 3.01974654
C  1.12385716 -0.36942012 3.41193697
C  2.19718099 0.32254519 2.84763490
C  2.02940540 1.74336534 2.42546731
C  2.80824807 1.94610432 1.16951184
C  2.30677982 2.77368620 0.16308321
C  2.42009897 2.36232874 -1.26628053
C  1.17562173 2.78964760 -1.96898365
C  0.61833206 1.97698070 -2.95805505
C  -0.79904717 -2.38124012 -2.59463461
C  -1.12385798 0.36942035 -3.41193664
C  2.94566254 -2.08835601 0.05617038
60
MD Step 8 Units = [Angstroms]
C  -2.94027861 2.08309581 -0.05488074
C  -2.82702516 1.67209989 -1.48304949
C  -3.07330178 0.35378014 -1.84847890
C  -3.45064139 -0.64879945 -0.81219985
C  -3.55625526 -0.26548327 0.51973674
C  -3.29218128 1.14807355 0.91158170
C  -1.86442244 3.07577099 0.22540464
C  -1.08627442 3.27829750 -1.02953853
C  -1.68119635 2.41078594 -2.08543036
C  -0.85886956 1.78140339 -3.01265821
C  -2.19154652 -0.32106912 -2.84270586
C  -2.80209822 -1.94326491 -1.16598073
C  -2.30283915 -2.76721091 -0.16398681
C  -2.41606236 -2.35620103 1.26418979
C  -3.02091019 -1.14895399 1.59412823
C  -2.42597613 -0.28141366 2.64998703
C  -2.59362670 1.13822343 2.22815591
C  -1.59029317 2.06402797 2.48957600
C  -1.21297946 3.06659208 1.45328071
C  0.29088327 3.45800223 -0.97204882
C  0.98938997 3.44814723 0.34454277
C  0.26367685 3.25926956 1.51492705
C  0.79896522 2.37576964 2.58931226
C  -0.34684336 1.63707555 3.19168642
C  -0.19049123 0.31310157 3.58509957
C  -1.26631964 -0.67959163 3.30479102
C  -0.61778689 -1.97407026 2.95102343
C  -1.17262531 -2.78315920 1.96630051
C  -2.02391338 -1.74070316 -2.42089446
C  1.86442544 -3.07577034 -0.22540182
C  1.21297798 -3.06659298 -1.45328622
C  1.59029433 -2.06402693 -2.48957740
C  2.59362702 -1.13822336 -2.22815583
C  3.29218124 -1.14807303 -0.91158171
C  2.82702308 -1.67210080 1.48304883
C  1.68119572 -2.41078664 2.08542893
C  1.08627556 -3.27829709 1.02953585
C  -0.29088102 -3.45800334 0.97204985
C  -0.98938909 -3.44814681 -0.34454389
C  -0.26367464 -3.25926898 -1.51492690
C  0.34684281 -1.63707523 -3.19168629
C  0.19049070 -0.31310128 -3.58509807
C  1.26631674 0.67959160 -3.30478725
C  2.42597789 0.28141349 -2.64998490
C  3.02091190 1.14895236 -1.59412971
C  3.55625523 0.26548348 -0.51973605
C  3.45063970 0.64879907 0.81219989
C  3.07329796 -0.35377951 1.84847651
C  0.85886929 -1.78140276 3.01265854
C  1.12294173 -0.36785178 3.40452535
C  2.19154415 0.32107024 2.84270674
C  2.02391289 1.74070412 2.42089454
C  2.80209762 1.94326602 1.16597977
C  2.30284013 2.76721056 0.16398513
C  2.41606720 2.35620115 -1.26418692
C  1.17262206 2.78315608 -1.96630079
C  0.61778797 1.97406999 -2.95102044
C  -0.79896479 -2.37576961 -2.58931170
C  -1.12294271 0.36785199 -3.40452491
C  2.94027856 -2.08309555 0.05487988
60
MD Step 9 Units = [Angstroms]
C  -2.93409026 2.07780116 -0.05401549
C  -2.82100889 1.66741316 -1.48007438
C  -3.06636647 0.35401906 -1.84413956
C  -3.44314597 -0.64707867 -0.80939234
C  -3.54836576 -0.26519161 0.51756709
C  -3.28468039 1.14627270 0.90883461
C  -1.85982785 3.06901249 0.22585575
C  -1.08283121 3.27123956 -1.02723340
C  -1.67687013 2.40500596 -2.08156317
C  -0.85762002 1.77798091 -3.00532939
C  -2.18591229 -0.31983498 -2.83690056
C  -2.79555855 -1.93962761 -1.16264620
C  -2.29816824 -2.76050100 -0.16439950
C  -2.41122668 -2.35010291 1.26167168
C  -3.01381344 -1.14736250 1.59037219
C  -2.41975876 -0.28110473 2.64467550
C  -2.58716065 1.13643912 2.22347107
C  -1.58757249 2.05878243 2.48390929
C  -1.21081946 3.05986621 1.44914324
C  0.28918141 3.45027256 -0.96995917
C  0.98665850 3.44043220 0.34468630
C  0.26365704 3.25225930 1.51069595
C  0.79815422 2.37006529 2.58349748
C  -0.34596039 1.63246469 3.18498202
C  -0.19019484 0.31343581 3.57692155
C  -1.26443543 -0.67779409 3.29703379
C  -0.61685620 -1.97036085 2.94378736
C  -1.16962108 -2.77642151 1.96273928
C  -2.01853078 -1.73737313 -2.41571497
C  1.85983100 -3.06901192 -0.22585155
C  1.21081653 -3.05986733 -1.44914887
C  1.58757375 -2.05878141 -2.48391099
C  2.58716121 -1.13643906 -2.22347093
C  3.28468043 -1.14627218 -0.90883465
C  2.82100660 -1.66741408 1.48007363
C  1.67686936 -2.40500676 2.08156167
C  1.08283263 -3.27123916 1.02723045
C  -0.28917903 -3.45027393 0.96996018
C  -0.98665732 -3.44043179 -0.34468744
C  -0.26365452 -3.25225869 -1.51069591
C  0.34595986 -1.63246436 -3.18498189
C  0.19019417 -0.31343550 -3.57691976
C  1.26443251 0.67779382 -3.29703119
C  2.41976053 0.28110450 -2.64467330
C  3.01381559 1.14736077 -1.59037368
C  3.54836583 0.26519173 -0.51756636
C  3.44314401 0.64707828 0.80939239
C  3.06636389 -0.35401848 1.84413689
C  0.85761981 -1.77798035 3.00532967
C  1.12129697 -0.36651417 3.39662096
C  2.18590969 0.31983622 2.83690144
C  2.01853035 1.73737416 2.41571503
C  2.79555796 1.93962871 1.16264522
C  2.29816949 2.76050063 0.16439764
C  2.41123211 2.35010291 -1.26166684
C  1.16961607 2.77641992 -1.96274100
C  0.61685718 1.97036024 -2.94378414
C  -0.79815379 -2.37006521 -2.58349685
C  -1.12129811 0.36651436 -3.39662039
C  2.93409033 -2.07780092 0.05401454
60
MD Step 10 Units = [Angstroms]
C  -2.92713546 2.07261660 -0.05367265
C  -2.81430654 1.66312779 -1.47660906
C  -3.05896870 0.35346221 -1.83964235
C  -3.43492075 -0.64544250 -0.80716134
C  -3.53984211 -0.26463707 0.51603108
C  -3.27673235 1.14373287 0.90644372
C  -1.85522978 3.06166054 0.22558580
C  -1.07993591 3.26344467 -1.02475951
C  -1.67267082 2.39910410 -2.07677801
C  -0.85574909 1.77386394 -2.99792632
C  -2.18044052 -0.31891799 -2.83023269
C  -2.78874841 -1.93515777 -1.15963748
C  -2.29277369 -2.75370690 -0.16422724
C  -2.40558751 -2.34421205 1.25872525
C  -3.00646236 -1.14488144 1.58648777
C  -2.41370940 -0.28052138 2.63848686
C  -2.58074343 1.13392231 2.21820836
C  -1.58398911 2.05364588 2.47790211
C  -1.20806382 3.05253844 1.44540014
C  0.28818214 3.44196893 -0.96764861
C  0.98413486 3.43215025 0.34411693
C  0.26318531 3.24451031 1.50681563
C  0.79651287 2.36424881 2.57727138
C  -0.34509594 1.62826571 3.17743941
C  -0.18977524 0.31297839 3.56826260
C  -1.26166477 -0.67608415 3.28899471
C  -0.61549921 -1.96582093 2.93652008
C  -1.16669426 -2.76958824 1.95825227
C  -2.01342951 -1.73335436 -2.40997174
C  1.85523282 -3.06166009 -0.22558081
C  1.20805981 -3.05253974 -1.44540542
C  1.58399041 -2.05364493 -2.47790408
C  2.58074426 -1.13392224 -2.21820815
C  3.27673248 -1.14373238 -0.90644379
C  2.81430411 -1.66312861 1.47660824
C  1.67266987 -2.39910494 2.07677653
C  1.07993757 -3.26344431 1.02475643
C  -0.28817981 -3.44197053 0.96764953
C  -0.98413337 -3.43214987 -0.34411800
C  -0.26318259 -3.24450968 -1.50681573
C  0.34509545 -1.62826537 -3.17743929
C  0.18977440 -0.31297806 -3.56826053
C  1.26166205 0.67608360 -3.28899321
C  2.41371100 0.28052112 -2.63848475
C  3.00646495 1.14487976 -1.58648915
C  3.53984231 0.26463706 -0.51603037
C  3.43491853 0.64544215 0.80716140
C  3.05896730 -0.35346171 1.83963951
C  0.85574893 -1.77386350 2.99792652
C  1.11884471 -0.36548469 3.38836353
C  2.18043778 0.31891932 2.83023348
C  2.01342918 1.73335544 2.40997178
C  2.78874785 1.93515881 1.15963655
C  2.29277521 2.75370656 0.16422529
C  2.40559331 2.34421191 -1.25871877
C  1.16668795 2.76958825 -1.95825513
C  0.61549993 1.96581987 -2.93651681
C  -0.79651252 -2.36424863 -2.57727071
C  -1.11884603 0.36548486 -3.38836283
C  2.92713565 -2.07261637 0.05367165
60
MD Step 11 Units = [Angstroms]
C  -2.91948987 2.06764820 -0.05389676
C  -2.80699484 1.65935407 -1.47268330
C  -3.05121462 0.35206208 -1.83506092
C  -3.42606807 -0.64392802 -0.80559111
C  -3.53079926 -0.26381101 0.51520402
C  -3.26845484 1.14044826 0.90448027
C  -1.85071493 3.05381092 0.22454735
C  -1.07768324 3.25500654 -1.02215134
C  -1.66868711 2.39318309 -2.07109850
C  -0.85324682 1.76907964 -2.99058362
C  -2.17524654 -0.31835859 -2.82276548
C  -2.78177686 -1.92987929 -1.15703527
C  -2.28670476 -2.74695094 -0.16343058
C  -2.39919292 -2.33865491 1.25537495
C  -2.99897742 -1.14149288 1.58253908
C  -2.40795468 -0.27965466 2.63147421
C  -2.57449997 1.13066715 2.21242513
C  -1.57954795 2.04872341 2.47164322
C  -1.20472118 3.04470345 1.44215097
C  0.28795565 3.43320651 -0.96514476
C  0.98188195 3.42341668 0.34279346
C  0.26223765 3.23611527 1.50338507
C  0.79401173 2.35842205 2.57072170
C  -0.34426771 1.62458800 3.16914014
C  -0.18923141 0.31168024 3.55925140
C  -1.25799546 -0.67450055 3.28080523
C  -0.61371050 -1.96047576 2.92935677
C  -1.16390587 -2.76278169 1.95285685
C  -2.00872654 -1.72867260 -2.40373226
C  1.85071761 -3.05381064 -0.22454221
C  1.20471655 -3.04470491 -1.44215543
C  1.57954921 -2.04872261 -2.47164545
C  2.57450110 -1.13066708 -2.21242485
C  3.26845508 -1.14044780 -0.90448039
C  2.80699235 -1.65935469 1.47268244
C  1.66868596 -2.39318391 2.07109715
C  1.07768509 -3.25500625 1.02214828
C  -0.28795353 -3.43320830 0.96514548
C  -0.98188015 -3.42341636 -0.34279436
C  -0.26223485 -3.23611465 -1.50338536
C  0.34426728 -1.62458765 -3.16914005
C  0.18923035 -0.31167987 -3.55924908
C  1.25799316 0.67449966 -3.28080475
C  2.40795593 0.27965439 -2.63147236
C  2.99898043 1.14149142 -1.58254023
C  3.53079959 0.26381085 -0.51520337
C  3.42606561 0.64392778 0.80559116
C  3.05121432 -0.35206171 1.83505804
C  0.85324671 -1.76907938 2.99058371
C  1.11557252 -0.36480526 3.37988347
C  2.17524376 0.31835997 2.82276609
C  2.00872634 1.72867370 2.40373227
C  2.78177635 1.92988018 1.15703449
C  2.28670654 2.74695071 0.16342866
C  2.39919882 2.33865459 -1.25536727
C  1.16389877 2.76278331 -1.95286048
C  0.61371081 1.96047418 -2.92935362
C  -0.79401151 -2.35842174 -2.57072101
C  -1.11557402 0.36480542 -3.37988263
C  2.91949021 -2.06764799 0.05389575
60
MD Step 12 Units = [Angstroms]
C  -2.91127121 2.06295544 -0.05467041
C  -2.79918496 1.65612834 -1.46836023
C  -3.04321472 0.34985846 -1.83045748
C  -3.41671976 -0.64255191 -0.80468532
C  -3.52136874 -0.26273126 0.51507873
C  -3.25996454 1.13648086 0.90295921
C  -1.84634029 3.04557905 0.22277356
C  -1.07608632 3.24605202 -1.01944644
C  -1.66496565 2.38732090 -2.06462182
C  -0.85016207 1.76370756 -2.98339587
C  -2.17039127 -0.31815494 -2.81461704
C  -2.77473919 -1.92388191 -1.15486336
C  -2.28005804 -2.74032057 -0.16203579
C  -2.39214586 -2.33349561 1.25167486
C  -2.99145998 -1.13726429 1.57857945
C  -2.40256241 -0.27852313 2.62375034
C  -2.56850756 1.12673500 2.20621027
C  -1.57432904 2.04407400 2.46522094
C  -1.20085021 3.03647673 1.43942569
C  0.28848527 3.42411165 -0.96248531
C  0.97992233 3.41435730 0.34075242
C  0.26083859 3.22720049 1.50043773
C  0.79070550 2.35266158 2.56394237
C  -0.34348560 1.62146632 3.16021212
C  -0.18857363 0.30957976 3.55001490
C  -1.25349842 -0.67306079 3.27257630
C  -0.61152453 -1.95441578 2.92238854
C  -1.16128885 -2.75609029 1.94664680
C  -2.00447324 -1.72340600 -2.39709078
C  1.84634237 -3.04557898 -0.22276892
C  1.20084544 -3.03647827 -1.43942890
C  1.57433019 -2.04407343 -2.46522336
C  2.56850898 -1.12673492 -2.20620994
C  3.25996490 -1.13648047 -0.90295936
C  2.79918249 -1.65612866 1.46835934
C  1.66496429 -2.38732164 2.06462068
C  1.07608826 -3.24605182 1.01944356
C  -0.28848352 -3.42411359 0.96248577
C  -0.97992023 -3.41435703 -0.34075309
C  -0.26083587 -3.22719989 -1.50043824
C  0.34348526 -1.62146596 -3.16021207
C  0.18857234 -0.30957936 -3.55001235
C  1.25349676 0.67305951 -3.27257675
C  2.40256316 0.27852288 -2.62374890
C  2.99146335 1.13726321 -1.57858024
C  3.52136923 0.26273093 -0.51507819
C  3.41671711 0.64255182 0.80468536
C  3.04321539 -0.34985826 1.83045471
C  0.85016198 -1.76370753 2.98339582
C  1.11154417 -0.36447586 3.37129736
C  2.17038855 0.31815632 2.81461738
C  2.00447319 1.72340709 2.39709076
C  2.77473877 1.92388260 1.15486281
C  2.28006006 2.74032050 0.16203403
C  2.39215153 2.33349511 -1.25166649
C  1.16128157 2.75609346 -1.94665083
C  0.61152430 1.95441364 -2.92238568
C  -0.79070546 -2.35266110 -2.56394169
C  -1.11154583 0.36447601 -3.37129639
C  2.91127170 -2.06295526 0.05466944
60
MD Step 13 Units = [Angstroms]
C  -2.90263983 2.05854870 -0.05591177
C  -2.79102295 1.65340947 -1.46373706
C  -3.03508296 0.34698176 -1.82588178
C  -3.40703712 -0.64130940 -0.80436374
C  -3.51169809 -0.26144301 0.51556213
C  -3.25137591 1.13196277 0.90183656
C  -1.84213127 3.03709971 0.22038139