60
MD Step 0 Units = [Angstroms / fs]
C  0.00000000 0.00000000 0.00000000
C  0.00000000 0.00000000 0.00000000
C  0.00000000 0.00000000 0.00000000
C  0.00000000 0.00000000 0.00000000
C  0.00000000 0.00000000 0.00000000
C  0.00000000 0.00000000 0.00000000
C  0.00000000 0.00000000 0.00000000
C  0.00000000 0.00000000 0.00000000
C  0.00000000 0.00000000 0.00000000
C  0.00000000 0.00000000 0.00000000
C  0.00000000 0.00000000 0.00000000
C  0.00000000 0.00000000 0.00000000
C  0.00000000 0.00000000 0.00000000
C  0.00000000 0.00000000 0.00000000
C  0.00000000 0.00000000 0.00000000
C  0.00000000 0.00000000 0.00000000
C  0.00000000 0.00000000 0.00000000
C  0.00000000 0.00000000 0.00000000
C  0.00000000 0.00000000 0.00000000
C  0.00000000 0.00000000 0.00000000
C  0.00000000 0.00000000 0.00000000
C  0.00000000 0.00000000 0.00000000
C  0.00000000 0.00000000 0.00000000
C  0.00000000 0.00000000 0.00000000
C  0.00000000 0.00000000 0.00000000
C  0.00000000 0.00000000 0.00000000
C  0.00000000 0.00000000 0.00000000
C  0.00000000 0.00000000 0.00000000
C  0.00000000 0.00000000 0.00000000
C  0.00000000 0.00000000 0.00000000
C  0.00000000 0.00000000 0.00000000
C  0.00000000 0.00000000 0.00000000
C  0.00000000 0.00000000 0.00000000
C  0.00000000 0.00000000 0.00000000
C  0.00000000 0.00000000 0.00000000
C  0.00000000 0.00000000 0.00000000
C  0.00000000 0.00000000 0.00000000
C  0.00000000 0.00000000 0.00000000
C  0.00000000 0.00000000 0.00000000
C  0.00000000 0.00000000 0.00000000
C  0.00000000 0.00000000 0.00000000
C  0.00000000 0.00000000 0.00000000
C  0.00000000 0.00000000 0.00000000
C  0.00000000 0.00000000 0.00000000
C  0.00000000 0.00000000 0.00000000
C  0.00000000 0.00000000 0.00000000
C  0.00000000 0.00000000 0.00000000
C  0.00000000 0.00000000 0.00000000
C  0.00000000 0.00000000 0.00000000
C  0.00000000 0.00000000 0.00000000
C  0.00000000 0.00000000 0.00000000
C  0.00000000 0.00000000 0.00000000
C  0.00000000 0.00000000 0.00000000
C  0.00000000 0.00000000 0.00000000
C  0.00000000 0.00000000 0.00000000
C  0.00000000 0.00000000 0.00000000
C  0.00000000 0.00000000 0.00000000
C  0.00000000 0.00000000 0.00000000
C  0.00000000 0.00000000 0.00000000
C  0.00000000 0.00000000 0.00000000
60
MD Step 1 Units = [Angstroms / fs]
C  0.00056847 -0.00110258 0.00043565
C  0.00058944 -0.00118133 0.00016120
C  0.00090321 0.00049933 0.00062715
C  0.00083130 0.00030664 0.00082592
C  0.00096568 -0.00018113 -0.00087263
C  0.00101655 0.00008949 -0.00079729
C  0.00077448 -0.00091154 0.00048941
C  0.00092345 -0.00087275 0.00024830
C  0.00081041 -0.00104008 0.00004545
C  -0.00023970 -0.00023597 0.00122811
C  0.00107271 0.00036931 0.00043578
C  0.00095602 0.00005911 0.00075878
C  0.00031904 0.00110853 -0.00051975
C  0.00029708 0.00118676 -0.00024412
C  0.00106835 -0.00035203 -0.00066592
C  0.00118291 -0.00018546 -0.00046216
C  0.00115066 0.00008826 -0.00054270
C  -0.00012810 -0.00109287 -0.00087690
C  -0.00005648 -0.00090009 -0.00107634
C  -0.00083206 -0.00110178 0.00017491
C  -0.00069779 -0.00110369 0.00042788
C  0.00022792 -0.00086290 -0.00106504
C  0.00033003 -0.00103261 -0.00085781
C  0.00011041 -0.00117437 -0.00074212
C  -0.00008919 0.00051409 -0.00124435
C  -0.00029648 0.00032264 -0.00129724
C  -0.00017083 0.00007362 -0.00136533
C  0.00053654 0.00110617 -0.00011053
C  0.00110424 0.00009667 0.00051624
C  -0.00090039 0.00078548 -0.00061489
C  -0.00007011 0.00077395 0.00094994
C  0.00000208 0.00096682 0.00075076
C  -0.00127675 -0.00021436 0.00041660
C  -0.00114263 -0.00021557 0.00067120
C  -0.00071562 0.00105517 -0.00028733
C  -0.00093650 0.00091393 -0.00017162
C  -0.00104948 0.00074667 -0.00037453
C  0.00070611 0.00097563 -0.00030093
C  0.00057174 0.00097760 -0.00055404
C  -0.00035390 0.00073682 0.00093897
C  -0.00023652 0.00104828 0.00061603
C  -0.00003690 -0.00064019 0.00111831
C  0.00017024 -0.00044873 0.00117090
C  -0.00130888 0.00005934 0.00033619
C  -0.00119438 0.00022583 0.00053973
C  -0.00109177 0.00005504 0.00074657
C  -0.00095745 -0.00043278 -0.00095201
C  -0.00102905 -0.00062540 -0.00075336
C  0.00011360 0.00010991 -0.00135418
C  0.00016274 0.00038232 -0.00127777
C  -0.00119890 -0.00049537 -0.00056182
C  -0.00123035 -0.00022274 -0.00064233
C  -0.00108213 -0.00018516 -0.00088493
C  -0.00044508 -0.00123466 0.00039357
C  -0.00042293 -0.00131285 0.00011859
C  -0.00066322 -0.00123203 -0.00001602
C  0.00004484 -0.00019971 0.00123939
C  -0.00045608 0.00090650 0.00073174
C  -0.00028885 -0.00050842 0.00115169
C  -0.00069456 0.00097648 -0.00056179
60
MD Step 2 Units = [Angstroms / fs]
C  0.00113157 -0.00218174 0.00080927
C  0.00116894 -0.00232254 0.00031852
C  0.00177452 0.00092130 0.00121782
C  0.00164604 0.00057676 0.00157320
C  0.00190542 -0.00036469 -0.00170515
C  0.00199640 0.00011906 -0.00157042
C  0.00149982 -0.00184009 0.00090538
C  0.00176611 -0.00177073 0.00047425
C  0.00156418 -0.00207005 0.00011155
C  -0.00046263 -0.00051804 0.00239416
C  0.00207765 0.00068875 0.00087556
C  0.00186910 0.00013431 0.00145329
C  0.00063963 0.00215975 -0.00101440
C  0.00060033 0.00229950 -0.00052137
C  0.00208896 -0.00067046 -0.00133549
C  0.00229382 -0.00037263 -0.00097099
C  0.00223617 0.00011695 -0.00111490
C  -0.00023193 -0.00216274 -0.00175998
C  -0.00010401 -0.00181799 -0.00211667
C  -0.00162219 -0.00221279 0.00033259
C  -0.00138207 -0.00221621 0.00078492
C  0.00040464 -0.00175147 -0.00209655
C  0.00058714 -0.00205492 -0.00172586
C  0.00019451 -0.00230836 -0.00151899
C  -0.00019076 0.00095050 -0.00248837
C  -0.00056151 0.00060803 -0.00258276
C  -0.00033667 0.00016271 -0.00270454
C  0.00102864 0.00215566 -0.00028269
C  0.00213389 0.00020124 0.00101933
C  -0.00179006 0.00154955 -0.00119480
C  -0.00018755 0.00152730 0.00182548
C  -0.00005851 0.00187223 0.00146929
C  -0.00252675 -0.00040757 0.00082431
C  -0.00228698 -0.00040963 0.00127983
C  -0.00145969 0.00203181 -0.00060917
C  -0.00185477 0.00177936 -0.00040229
C  -0.00205660 0.00148016 -0.00076510
C  0.00133187 0.00192209 -0.00062306
C  0.00109155 0.00192563 -0.00107564
C  -0.00069500 0.00146090 0.00180600
C  -0.00048513 0.00201777 0.00122841
C  -0.00009982 -0.00124110 0.00219789
C  0.00027063 -0.00089862 0.00229169
C  -0.00258418 0.00008200 0.00068063
C  -0.00237942 0.00037967 0.00104472
C  -0.00219599 0.00007410 0.00141463
C  -0.00193673 -0.00086744 -0.00186379
C  -0.00206462 -0.00121186 -0.00150863
C  0.00017204 0.00022750 -0.00268471
C  0.00025965 0.00071474 -0.00254791
C  -0.00236843 -0.00097928 -0.00116604
C  -0.00242452 -0.00049177 -0.00130991
C  -0.00215972 -0.00042482 -0.00174399
C  -0.00093013 -0.00245042 0.00072365
C  -0.00089045 -0.00259010 0.00023185
C  -0.00132035 -0.00244581 -0.00000879
C  0.00004626 -0.00045331 0.00241424
C  -0.00087764 0.00176429 0.00143532
C  -0.00055028 -0.00100534 0.00225734
C  -0.00142216 0.00189115 -0.00109994
60
MD Step 3 Units = [Angstroms / fs]
C  0.00185692 -0.00304154 0.00123622
C  0.00190182 -0.00321212 0.00064133
C  0.00275668 0.00136707 0.00191080
C  0.00260120 0.00094944 0.00234145
C  0.00296736 -0.00037955 -0.00228643
C  0.00307774 0.00020641 -0.00212305
C  0.00230295 -0.00262721 0.00135270
C  0.00262553 -0.00254318 0.00083009
C  0.00238126 -0.00290633 0.00039051
C  -0.00047988 -0.00071538 0.00361264
C  0.00312420 0.00108500 0.00149571
C  0.00287170 0.00041358 0.00219649
C  0.00113606 0.00327272 -0.00128705
C  0.00108826 0.00344173 -0.00068891
C  0.00318972 -0.00075071 -0.00183822
C  0.00343810 -0.00038976 -0.00139598
C  0.00336826 0.00020411 -0.00157016
C  -0.00011579 -0.00301402 -0.00248087
C  0.00003892 -0.00259604 -0.00291340
C  -0.00215760 -0.00316723 0.00063011
C  -0.00186643 -0.00317138 0.00117837
C  0.00065574 -0.00251535 -0.00288926
C  0.00087674 -0.00288316 -0.00243956
C  0.00040100 -0.00319024 -0.00218879
C  -0.00014292 0.00141003 -0.00355728
C  -0.00059255 0.00099457 -0.00367119
C  -0.00031955 0.00045468 -0.00381889
C  0.00160781 0.00326810 -0.00040016
C  0.00319204 0.00049405 0.00166973
C  -0.00248501 0.00244474 -0.00153359
C  -0.00022282 0.00241337 0.00273004
C  -0.00006654 0.00283159 0.00229819
C  -0.00355075 -0.00038669 0.00138762
C  -0.00326025 -0.00038892 0.00194051
C  -0.00208458 0.00302939 -0.00082395
C  -0.00256380 0.00272366 -0.00057326
C  -0.00280791 0.00236066 -0.00101298
C  0.00197544 0.00298454 -0.00081248
C  0.00168401 0.00298886 -0.00136108
C  -0.00083796 0.00233285 0.00270677
C  -0.00058357 0.00300770 0.00200627
C  -0.00003961 -0.00159258 0.00337491
C  0.00040963 -0.00117712 0.00348796
C  -0.00362032 0.00020716 0.00121376
C  -0.00337206 0.00056790 0.00165545
C  -0.00314987 0.00019702 0.00210400
C  -0.00278388 -0.00113209 -0.00252398
C  -0.00293850 -0.00154955 -0.00209364
C  0.00029734 0.00053291 -0.00379512
C  0.00040290 0.00112388 -0.00362884
C  -0.00330700 -0.00126745 -0.00167811
C  -0.00337462 -0.00067650 -0.00185225
C  -0.00305428 -0.00059600 -0.00237917
C  -0.00131845 -0.00345535 0.00110430
C  -0.00127014 -0.00362428 0.00050789
C  -0.00179193 -0.00344999 0.00021637
C  0.00013725 -0.00063723 0.00363676
C  -0.00105915 0.00270056 0.00225709
C  -0.00058549 -0.00130643 0.00344635
C  -0.00203944 0.00285900 -0.00141887
60
MD Step 4 Units = [Angstroms / fs]
C  0.00246134 -0.00393730 0.00139002
C  0.00250130 -0.00409223 0.00084897
C  0.00354490 0.00149811 0.00239868
C  0.00340407 0.00111832 0.00279005
C  0.00385110 -0.00050411 -0.00285968
C  0.00395169 0.00002786 -0.00271095
C  0.00286620 -0.00356008 0.00149590
C  0.00315910 -0.00348376 0.00102062
C  0.00293806 -0.00381472 0.00062102
C  -0.00055481 -0.00113991 0.00455438
C  0.00387931 0.00124120 0.00202075
C  0.00365034 0.00063203 0.00265908
C  0.00153132 0.00412232 -0.00159369
C  0.00148753 0.00427520 -0.00104861
C  0.00405307 -0.00084278 -0.00245181
C  0.00427907 -0.00051467 -0.00204873
C  0.00421561 0.00002633 -0.00220654
C  -0.00003761 -0.00390238 -0.00331850
C  0.00010228 -0.00352210 -0.00371221
C  -0.00268024 -0.00424564 0.00077646
C  -0.00241520 -0.00424941 0.00127499
C  0.00066381 -0.00344859 -0.00369079
C  0.00086429 -0.00378301 -0.00328102
C  0.00043208 -0.00406200 -0.00305297
C  -0.00023205 0.00155385 -0.00472376
C  -0.00064144 0.00117532 -0.00482622
C  -0.00039215 0.00068409 -0.00496074
C  0.00196081 0.00411890 -0.00078726
C  0.00394027 0.00070375 0.00217843
C  -0.00325103 0.00317476 -0.00187930
C  -0.00048935 0.00313653 0.00332587
C  -0.00034753 0.00351712 0.00293292
C  -0.00460094 -0.00041177 0.00182115
C  -0.00433704 -0.00041322 0.00232556
C  -0.00288696 0.00370663 -0.00123446
C  -0.00332347 0.00342916 -0.00100665
C  -0.00354429 0.00309839 -0.00140643
C  0.00229528 0.00386004 -0.00116166
C  0.00202996 0.00386404 -0.00166058
C  -0.00104881 0.00306323 0.00330545
C  -0.00081751 0.00367661 0.00266760
C  -0.00015335 -0.00193925 0.00433858
C  0.00025560 -0.00156073 0.00443996
C  -0.00466409 0.00012920 0.00166371
C  -0.00443819 0.00045706 0.00206615
C  -0.00423646 0.00011871 0.00247441
C  -0.00378965 -0.00150384 -0.00317544
C  -0.00392938 -0.00188344 -0.00278444
C  0.00016942 0.00075458 -0.00493970
C  0.00026400 0.00129282 -0.00478750
C  -0.00426502 -0.00162648 -0.00240598
C  -0.00432570 -0.00108904 -0.00256380
C  -0.00403577 -0.00101729 -0.00304464
C  -0.00191653 -0.00450783 0.00120804
C  -0.00187213 -0.00466060 0.00066510
C  -0.00234814 -0.00450343 0.00040034
C  0.00000704 -0.00106951 0.00457583
C  -0.00124954 0.00339755 0.00289572
C  -0.00064946 -0.00167823 0.00440216
C  -0.00284670 0.00355190 -0.00177555
60
MD Step 5 Units = [Angstroms / fs]
C  0.00324160 -0.00454571 0.00153750
C  0.00326154 -0.00462998 0.00124168
C  0.00441934 0.00157249 0.00296095
C  0.00434363 0.00136494 0.00317426
C  0.00483964 -0.00043509 -0.00309402
C  0.00489507 -0.00014636 -0.00301240
C  0.00346120 -0.00433862 0.00159525
C  0.00362027 -0.00429710 0.00133545
C  0.00350190 -0.00447955 0.00111741
C  -0.00037334 -0.00151175 0.00548100
C  0.00460253 0.00143123 0.00275338
C  0.00447882 0.00110143 0.00310458
C  0.00212758 0.00497358 -0.00161389
C  0.00210294 0.00505531 -0.00131348
C  0.00494946 -0.00062271 -0.00287051
C  0.00507326 -0.00044368 -0.00264821
C  0.00503871 -0.00014595 -0.00273315
C  0.00032002 -0.00450481 -0.00396712
C  0.00039472 -0.00429657 -0.00418311
C  -0.00285847 -0.00514245 0.00106452
C  -0.00271310 -0.00514453 0.00133686
C  0.00070290 -0.00425611 -0.00417259
C  0.00081140 -0.00443874 -0.00394685
C  0.00057611 -0.00459063 -0.00382220
C  -0.00016090 0.00163977 -0.00567612
C  -0.00038576 0.00143130 -0.00572963
C  -0.00024727 0.00116227 -0.00580359
C  0.00236337 0.00497341 -0.00117341
C  0.00463422 0.00113740 0.00283829
C  -0.00377305 0.00402625 -0.00190551
C  -0.00070901 0.00398394 0.00386970
C  -0.00063219 0.00419251 0.00365447
C  -0.00535104 -0.00016652 0.00242074
C  -0.00520745 -0.00016603 0.00269997
C  -0.00357425 0.00431733 -0.00155422
C  -0.00381436 0.00416695 -0.00143009
C  -0.00393246 0.00398469 -0.00164833
C  0.00254649 0.00482979 -0.00137676
C  0.00240086 0.00483212 -0.00164949
C  -0.00101491 0.00394372 0.00386020
C  -0.00088858 0.00427820 0.00350980
C  -0.00015155 -0.00195221 0.00536394
C  0.00007288 -0.00174377 0.00541619
C  -0.00538531 0.00013117 0.00233616
C  -0.00526155 0.00030994 0.00255782
C  -0.00515202 0.00012265 0.00278171
C  -0.00465628 -0.00167749 -0.00348668
C  -0.00473071 -0.00188486 -0.00327378
C  0.00006092 0.00119938 -0.00579337
C  0.00010949 0.00149534 -0.00570800
C  -0.00491530 -0.00174353 -0.00306565
C  -0.00494668 -0.00144972 -0.00315071
C  -0.00479130 -0.00141372 -0.00341717
C  -0.00243979 -0.00528613 0.00130118
C  -0.00241450 -0.00536776 0.00100319
C  -0.00267796 -0.00528480 0.00085927
C  -0.00006490 -0.00147478 0.00549168
C  -0.00112369 0.00412626 0.00363452
C  -0.00042202 -0.00180778 0.00539564
C  -0.00355398 0.00423327 -0.00185007
60
MD Step 6 Units = [Angstroms / fs]
C  0.00402339 -0.00501701 0.00149205
C  0.00400688 -0.00497076 0.00164966
C  0.00519587 0.00139928 0.00341518
C  0.00524018 0.00151016 0.00329946
C  0.00574962 -0.00033842 -0.00313802
C  0.00572141 -0.00049880 -0.00318059
C  0.00390098 -0.00512475 0.00146085
C  0.00381292 -0.00514753 0.00159947
C  0.00388361 -0.00505492 0.00171700
C  -0.00009617 -0.00200679 0.00619777
C  0.00509936 0.00147210 0.00352291
C  0.00516982 0.00165785 0.00334250
C  0.00275475 0.00563413 -0.00150348
C  0.00276573 0.00558488 -0.00165620
C  0.00568924 -0.00024600 -0.00325557
C  0.00562400 -0.00034251 -0.00336811
C  0.00564285 -0.00049518 -0.00331874
C  0.00079706 -0.00497174 -0.00458643
C  0.00075177 -0.00508172 -0.00447357
C  -0.00284087 -0.00601579 0.00132116
C  -0.00291689 -0.00601473 0.00117534
C  0.00059117 -0.00510245 -0.00448284
C  0.00052993 -0.00500450 -0.00459791
C  0.00065843 -0.00492156 -0.00466445
C  -0.00009875 0.00147661 -0.00656871
C  0.00001792 0.00158304 -0.00653249
C  -0.00004913 0.00172501 -0.00649435
C  0.00263210 0.00563945 -0.00173950
C  0.00507742 0.00162870 0.00347368
C  -0.00420644 0.00481880 -0.00176467
C  -0.00105968 0.00477550 0.00416670
C  -0.00110281 0.00466585 0.00428018
C  -0.00594871 0.00018915 0.00301277
C  -0.00602735 0.00019284 0.00287459
C  -0.00431317 0.00466457 -0.00195577
C  -0.00418967 0.00474875 -0.00202322
C  -0.00411864 0.00484155 -0.00190591
C  0.00253529 0.00570954 -0.00162700
C  0.00261113 0.00570874 -0.00148150
C  -0.00089673 0.00479650 0.00417686
C  -0.00096445 0.00461556 0.00435847
C  -0.00020729 -0.00178260 0.00626299
C  -0.00032431 -0.00188912 0.00622539
C  -0.00592966 0.00003643 0.00306246
C  -0.00599486 -0.00006031 0.00294935
C  -0.00605556 0.00003240 0.00283214
C  -0.00554642 -0.00181626 -0.00360544
C  -0.00550070 -0.00170523 -0.00372158
C  -0.00020980 0.00170084 -0.00650372
C  -0.00024533 0.00154829 -0.00654261
C  -0.00540569 -0.00177796 -0.00382876
C  -0.00538343 -0.00193459 -0.00377966
C  -0.00547585 -0.00196372 -0.00364865
C  -0.00306051 -0.00594024 0.00119720
C  -0.00307085 -0.00589092 0.00135246
C  -0.00294032 -0.00594424 0.00143173
C  -0.00025666 -0.00203114 0.00618885
C  -0.00083581 0.00469847 0.00429201
C  -0.00006079 -0.00185430 0.00623670
C  -0.00432932 0.00471101 -0.00179818
60
MD Step 7 Units = [Angstroms / fs]
C  0.00482208 -0.00531570 0.00127816
C  0.00475300 -0.00508007 0.00209391
C  0.00588850 0.00100400 0.00377987
C  0.00610677 0.00157705 0.00318669
C  0.00659340 -0.00018843 -0.00296158
C  0.00644372 -0.00100030 -0.00318444
C  0.00420356 -0.00588054 0.00111787
C  0.00375697 -0.00599661 0.00183477
C  0.00410167 -0.00550449 0.00243931
C  0.00030077 -0.00259301 0.00671788
C  0.00538593 0.00138771 0.00434540
C  0.00573797 0.00232119 0.00339303
C  0.00343089 0.00611827 -0.00123543
C  0.00349368 0.00587925 -0.00204628
C  0.00628609 0.00031087 -0.00357425
C  0.00594640 -0.00018550 -0.00417311
C  0.00604275 -0.00099223 -0.00392902
C  0.00141506 -0.00526773 -0.00514034
C  0.00119590 -0.00583965 -0.00455006
C  -0.00259812 -0.00682599 0.00156887
C  -0.00299557 -0.00682036 0.00081613
C  0.00035467 -0.00594925 -0.00458785
C  0.00004727 -0.00544407 -0.00519788
C  0.00070360 -0.00502041 -0.00554190
C  -0.00001995 0.00108973 -0.00736106
C  0.00059260 0.00165349 -0.00719503
C  0.00022684 0.00239209 -0.00699408
C  0.00278780 0.00613128 -0.00245332
C  0.00528645 0.00219808 0.00410171
C  -0.00451694 0.00556673 -0.00142970
C  -0.00151154 0.00552561 0.00423560
C  -0.00172867 0.00495400 0.00482625
C  -0.00635638 0.00067840 0.00361525
C  -0.00675746 0.00068651 0.00287061
C  -0.00506709 0.00476612 -0.00240783
C  -0.00441557 0.00519053 -0.00275330
C  -0.00407049 0.00568280 -0.00214898
C  0.00228464 0.00651191 -0.00188259
C  0.00268202 0.00650655 -0.00113006
C  -0.00066808 0.00563548 0.00427401
C  -0.00101742 0.00470660 0.00522810
C  -0.00029394 -0.00140354 0.00704753
C  -0.00090670 -0.00196743 0.00688005
C  -0.00625998 -0.00012839 0.00385955
C  -0.00659948 -0.00062493 0.00326028
C  -0.00690713 -0.00012544 0.00264785
C  -0.00642085 -0.00189094 -0.00350050
C  -0.00620108 -0.00131779 -0.00409406
C  -0.00061455 0.00227921 -0.00703167
C  -0.00077158 0.00147539 -0.00725131
C  -0.00570006 -0.00170138 -0.00465912
C  -0.00560025 -0.00251179 -0.00441552
C  -0.00605181 -0.00263492 -0.00370695
C  -0.00374445 -0.00643217 0.00092136
C  -0.00380667 -0.00619313 0.00173469
C  -0.00310375 -0.00644373 0.00213779
C  -0.00054055 -0.00270611 0.00668070
C  -0.00036101 0.00513025 0.00488416
C  0.00045762 -0.00178922 0.00693760
C  -0.00513581 0.00500188 -0.00159210
60
MD Step 8 Units = [Angstroms / fs]
C  0.00564605 -0.00541852 0.00093734
C  0.00551038 -0.00494230 0.00258942
C  0.00651385 0.00043526 0.00407914
C  0.00695306 0.00159564 0.00287934
C  0.00738324 0.00003531 -0.00255467
C  0.00707916 -0.00160422 -0.00300668
C  0.00439724 -0.00656435 0.00061299
C  0.00349516 -0.00679893 0.00206477
C  0.00418778 -0.00579897 0.00328812
C  0.00082859 -0.00322534 0.00706838
C  0.00549524 0.00121415 0.00522656
C  0.00620494 0.00309748 0.00329294
C  0.00416516 0.00645266 -0.00079806
C  0.00429384 0.00597270 -0.00244550
C  0.00676220 0.00105193 -0.00379661
C  0.00607374 0.00004747 -0.00501368
C  0.00626854 -0.00159065 -0.00452230
C  0.00217900 -0.00536953 -0.00559373
C  0.00173910 -0.00652851 -0.00439665
C  -0.00212195 -0.00753217 0.00182962
C  -0.00292793 -0.00752072 0.00030564
C  0.00003282 -0.00675107 -0.00447053
C  -0.00058725 -0.00572841 -0.00570978
C  0.00073968 -0.00487185 -0.00640640
C  0.00009965 0.00052768 -0.00801484
C  0.00134246 0.00167276 -0.00768413
C  0.00059688 0.00316958 -0.00727625
C  0.00286058 0.00647523 -0.00326365
C  0.00529741 0.00285530 0.00473591
C  -0.00467813 0.00628316 -0.00089253
C  -0.00202185 0.00624715 0.00411519
C  -0.00246000 0.00508840 0.00531229
C  -0.00654946 0.00130950 0.00424121
C  -0.00736022 0.00132308 0.00272551
C  -0.00579175 0.00466109 -0.00287066
C  -0.00446906 0.00551771 -0.00356937
C  -0.00377602 0.00651778 -0.00234623
C  0.00184100 0.00725076 -0.00211074
C  0.00264708 0.00723956 -0.00058684
C  -0.00031362 0.00646996 0.00418932
C  -0.00102082 0.00459072 0.00612525
C  -0.00038091 -0.00080881 0.00773398
C  -0.00162372 -0.00195410 0.00740181
C  -0.00635479 -0.00032868 0.00473267
C  -0.00704291 -0.00133323 0.00351540
C  -0.00766429 -0.00031654 0.00227358
C  -0.00723447 -0.00187682 -0.00316047
C  -0.00679375 -0.00071643 -0.00436060
C  -0.00110969 0.00294416 -0.00734954
C  -0.00142074 0.00131252 -0.00779914
C  -0.00577664 -0.00149516 -0.00550768
C  -0.00557851 -0.00313636 -0.00501706
C  -0.00648609 -0.00337859 -0.00357414
C  -0.00444604 -0.00673384 0.00051671
C  -0.00457431 -0.00625394 0.00216643
C  -0.00314362 -0.00675490 0.00298096
C  -0.00087806 -0.00345103 0.00699541
C  0.00030613 0.00544729 0.00542871
C  0.00113944 -0.00159368 0.00751811
C  -0.00592709 0.00513737 -0.00121858
60
MD Step 9 Units = [Angstroms / fs]
C  0.00643637 -0.00537568 0.00046843
C  0.00622409 -0.00462208 0.00308476
C  0.00703139 -0.00029463 0.00428293
C  0.00772521 0.00154293 0.00238378
C  0.00807149 0.00028745 -0.00198867
C  0.00758935 -0.00230616 -0.00270487
C  0.00446100 -0.00719141 -0.00004507
C  0.00303384 -0.00756263 0.00225401
C  0.00412741 -0.00597703 0.00419080
C  0.00142466 -0.00390566 0.00723082
C  0.00541775 0.00093998 0.00610135
C  0.00653972 0.00391817 0.00303620
C  0.00489741 0.00661683 -0.00025592
C  0.00510211 0.00585927 -0.00286814
C  0.00708877 0.00190072 -0.00395619
C  0.00599815 0.00031049 -0.00588617
C  0.00630645 -0.00228637 -0.00510981
C  0.00301656 -0.00532711 -0.00597305
C  0.00232231 -0.00716301 -0.00407627
C  -0.00148636 -0.00815291 0.00206459
C  -0.00276344 -0.00813475 -0.00034859
C  -0.00038145 -0.00751583 -0.00419170
C  -0.00136192 -0.00589652 -0.00615656
C  0.00073810 -0.00454094 -0.00725969
C  0.00022234 -0.00019725 -0.00855478
C  0.00219190 0.00161820 -0.00803442
C  0.00100824 0.00398927 -0.00738789
C  0.00283007 0.00665031 -0.00416007
C  0.00510666 0.00353898 0.00532608
C  -0.00473233 0.00691996 -0.00022520
C  -0.00259493 0.00689145 0.00380503
C  -0.00328784 0.00505571 0.00570141
C  -0.00657754 0.00201502 0.00483852
C  -0.00786062 0.00203479 0.00243349
C  -0.00649562 0.00435076 -0.00335620
C  -0.00439893 0.00570561 -0.00446217
C  -0.00330492 0.00729125 -0.00252556
C  0.00121505 0.00788131 -0.00233600
C  0.00249239 0.00786337 0.00007726
C  0.00011036 0.00724450 0.00392022
C  -0.00100942 0.00426960 0.00698833
C  -0.00049385 -0.00007408 0.00828371
C  -0.00246317 -0.00188981 0.00776193
C  -0.00626959 -0.00058189 0.00561480
C  -0.00735968 -0.00217210 0.00368489
C  -0.00834274 -0.00055891 0.00171732
C  -0.00799683 -0.00181426 -0.00265513
C  -0.00730153 0.00002321 -0.00455450
C  -0.00169596 0.00363421 -0.00750223
C  -0.00218432 0.00104797 -0.00821718
C  -0.00568928 -0.00121123 -0.00637275
C  -0.00537793 -0.00381027 -0.00559745
C  -0.00681106 -0.00418956 -0.00330753
C  -0.00516849 -0.00688818 -0.00001557
C  -0.00537299 -0.00613075 0.00259859
C  -0.00310296 -0.00692009 0.00388743
C  -0.00127977 -0.00426102 0.00711668
C  0.00109053 0.00562524 0.00588526
C  0.00191279 -0.00131934 0.00794596
C  -0.00670760 0.00510431 -0.00073985
60
MD Step 10 Units = [Angstroms / fs]
C  0.00713023 -0.00524736 -0.00011110
C  0.00683704 -0.00420036 0.00352531
C  0.00740599 -0.00114903 0.00436917
C  0.00836908 0.00140496 0.00173029
C  0.00861340 0.00051985 -0.00135214
C  0.00794288 -0.00308290 -0.00234784
C  0.00438632 -0.00777183 -0.00082471
C  0.00240371 -0.00828759 0.00237073
C  0.00392134 -0.00608237 0.00506221
C  0.00201625 -0.00462144 0.00720295
C  0.00516280 0.00056778 0.00689755
C  0.00672087 0.00470401 0.00263520
C  0.00556166 0.00660505 0.00031399
C  0.00584681 0.00555396 -0.00331908
C  0.00724807 0.00276451 -0.00408734
C  0.00573200 0.00055459 -0.00677160
C  0.00616033 -0.00305666 -0.00569386
C  0.00384205 -0.00520039 -0.00630398
C  0.00287886 -0.00775242 -0.00366691
C  -0.00078344 -0.00870415 0.00223689
C  -0.00255895 -0.00867887 -0.00111696
C  -0.00088022 -0.00824309 -0.00382622
C  -0.00224186 -0.00599255 -0.00655885
C  0.00067592 -0.00410915 -0.00809200
C  0.00031126 -0.00104831 -0.00900622
C  0.00304970 0.00147640 -0.00828538
C  0.00140246 0.00477240 -0.00738633
C  0.00268733 0.00664994 -0.00511204
C  0.00473201 0.00418008 0.00582130
C  -0.00472753 0.00743071 0.00048420
C  -0.00322069 0.00741127 0.00332651
C  -0.00418303 0.00485929 0.00596273
C  -0.00650103 0.00271569 0.00535295
C  -0.00828376 0.00274189 0.00200682
C  -0.00717813 0.00385952 -0.00386635
C  -0.00426250 0.00574138 -0.00540311
C  -0.00274448 0.00794655 -0.00271176
C  0.00044233 0.00836295 -0.00257801
C  0.00221829 0.00833785 0.00077609
C  0.00053938 0.00790211 0.00348507
C  -0.00101684 0.00376818 0.00775100
C  -0.00065243 0.00070736 0.00866550
C  -0.00339037 -0.00181770 0.00794333
C  -0.00607324 -0.00089559 0.00643045
C  -0.00758863 -0.00310535 0.00374653
C  -0.00895425 -0.00086097 0.00101112
C  -0.00871031 -0.00174586 -0.00207127
C  -0.00774584 0.00080794 -0.00471025
C  -0.00235718 0.00428031 -0.00754403
C  -0.00303290 0.00068404 -0.00853986
C  -0.00550387 -0.00090868 -0.00723867
C  -0.00507288 -0.00452103 -0.00616230
C  -0.00706181 -0.00504509 -0.00297608
C  -0.00590238 -0.00694596 -0.00065500
C  -0.00618757 -0.00589510 0.00297952
C  -0.00302936 -0.00698931 0.00477011
C  -0.00174378 -0.00511386 0.00704532
C  0.00190078 0.00565168 0.00621790
C  0.00269174 -0.00102504 0.00819901
C  -0.00747107 0.00490636 -0.00022991
60
MD Step 11 Units = [Angstroms / fs]
C  0.00783390 -0.00492975 -0.00059769
C  0.00746254 -0.00359881 0.00402591
C  0.00777877 -0.00190078 0.00449398
C  0.00900236 0.00134661 0.00113933
C  0.00913857 0.00085417 -0.00057504
C  0.00828573 -0.00372505 -0.00184120
C  0.00434629 -0.00814014 -0.00150500
C  0.00182617 -0.00879576 0.00255794
C  0.00375409 -0.00599084 0.00597972
C  0.00269490 -0.00517735 0.00716698
C  0.00492622 0.00028277 0.00770959
C  0.00690634 0.00553953 0.00228846
C  0.00625949 0.00659488 0.00099698
C  0.00662251 0.00525984 -0.00362424
C  0.00740296 0.00371003 -0.00405326
C  0.00547513 0.00090040 -0.00746758
C  0.00601961 -0.00369270 -0.00609828
C  0.00473157 -0.00488511 -0.00643985
C  0.00350826 -0.00813024 -0.00308626
C  0.00005275 -0.00902810 0.00248304
C  -0.00220523 -0.00899593 -0.00178115
C  -0.00127223 -0.00875434 -0.00328801
C  -0.00300267 -0.00589285 -0.00676379
C  0.00070644 -0.00349877 -0.00871307
C  0.00050205 -0.00179821 -0.00922333
C  0.00398465 0.00141301 -0.00830862
C  0.00188868 0.00560418 -0.00716511
C  0.00260412 0.00665069 -0.00590194
C  0.00437969 0.00487574 0.00634215
C  -0.00454436 0.00794235 0.00130722
C  -0.00370623 0.00793253 0.00288971
C  -0.00492924 0.00468732 0.00624204
C  -0.00621691 0.00349511 0.00590074
C  -0.00848321 0.00352740 0.00164356
C  -0.00766016 0.00340146 -0.00422354
C  -0.00395189 0.00579330 -0.00617715
C  -0.00202362 0.00859808 -0.00275543
C  -0.00025063 0.00883034 -0.00268086
C  0.00200794 0.00879828 0.00158376
C  0.00107463 0.00855673 0.00309021
C  -0.00090395 0.00330119 0.00851544
C  -0.00069987 0.00160065 0.00902597
C  -0.00418172 -0.00161096 0.00811005
C  -0.00567315 -0.00109798 0.00726966
C  -0.00760016 -0.00390733 0.00385596
C  -0.00933602 -0.00105192 0.00037736
C  -0.00920017 -0.00154408 -0.00133694
C  -0.00797534 0.00170304 -0.00469154
C  -0.00289246 0.00497955 -0.00736470
C  -0.00374932 0.00040567 -0.00863253
C  -0.00512380 -0.00048034 -0.00790741
C  -0.00457715 -0.00507332 -0.00653978
C  -0.00710386 -0.00573730 -0.00248586
C  -0.00645683 -0.00679234 -0.00119448
C  -0.00682017 -0.00545761 0.00342760
C  -0.00280220 -0.00684671 0.00570376
C  -0.00208675 -0.00580231 0.00696731
C  0.00280492 0.00569541 0.00656620
C  0.00355155 -0.00060327 0.00843506
C  -0.00803135 0.00473213 0.00040012
60
MD Step 12 Units = [Angstroms / fs]
C  0.00841827 -0.00455747 -0.00101493
C  0.00797916 -0.00297991 0.00446608
C  0.00805907 -0.00254769 0.00458255
C  0.00950881 0.00130205 0.00060639
C  0.00954393 0.00117671 0.00017168
C  0.00853274 -0.00425041 -0.00132934
C  0.00428479 -0.00836359 -0.00209048
C  0.00129784 -0.00914069 0.00272592
C  0.00358206 -0.00581489 0.00678191
C  0.00331407 -0.00560708 0.00707750
C  0.00467711 0.00004134 0.00839522
C  0.00702386 0.00627113 0.00196748
C  0.00685625 0.00653563 0.00163932
C  0.00728690 0.00495412 -0.00384042
C  0.00748667 0.00456363 -0.00395199
C  0.00520120 0.00123310 -0.00800048
C  0.00584653 -0.00421291 -0.00637806
C  0.00552202 -0.00451543 -0.00646834
C  0.00407296 -0.00836261 -0.00249234
C  0.00084683 -0.00920075 0.00270614
C  -0.00183031 -0.00916258 -0.00234872
C  -0.00159476 -0.00910263 -0.00273090
C  -0.00364544 -0.00571041 -0.00685230
C  0.00075089 -0.00287295 -0.00916294
C  0.00069643 -0.00244457 -0.00929532
C  0.00482541 0.00136299 -0.00821238
C  0.00233959 0.00633174 -0.00685645
C  0.00252245 0.00660081 -0.00653895
C  0.00403017 0.00548608 0.00677500
C  -0.00430022 0.00834863 0.00207496
C  -0.00408760 0.00834782 0.00247904
C  -0.00553689 0.00450044 0.00645345
C  -0.00586100 0.00419818 0.00636337
C  -0.00854734 0.00423559 0.00131457
C  -0.00799384 0.00296552 -0.00448083
C  -0.00359700 0.00580027 -0.00679639
C  -0.00131254 0.00912583 -0.00274039
C  -0.00086200 0.00918591 -0.00272117
C  0.00181586 0.00914778 0.00233425
C  0.00157987 0.00908786 0.00271594
C  -0.00076553 0.00285823 0.00914816
C  -0.00071141 0.00242986 0.00928078
C  -0.00483943 -0.00137812 0.00819677
C  -0.00521650 -0.00124780 0.00798529
C  -0.00750108 -0.00457792 0.00393766
C  -0.00955850 -0.00119162 -0.00018654
C  -0.00952371 -0.00131661 -0.00062115
C  -0.00807291 0.00253278 -0.00459710
C  -0.00332880 0.00559210 -0.00709238
C  -0.00434280 0.00016894 -0.00859661
C  -0.00469174 -0.00005611 -0.00841026
C  -0.00404475 -0.00550083 -0.00678976
C  -0.00703849 -0.00628609 -0.00198194
C  -0.00687076 -0.00655016 -0.00165382
C  -0.00730203 -0.00496904 0.00382610
C  -0.00253707 -0.00661406 0.00652400
C  -0.00235491 -0.00634704 0.00684136
C  0.00363050 0.00569586 0.00683754
C  0.00432792 -0.00018368 0.00858200
C  -0.00843286 0.00454270 0.00100025
60
MD Step 13 Units = [Angstroms / fs]
C  0.00860656 -0.00441350 -0.00153710
C  0.00811760 -0.00265378 0.00457722
C  0.00800762 -0.00323899 0.00441089
C  0.00962429 0.00105584 -0.00002413
C  0.00957821 0.00122533 0.00056983
C  0.00845007 -0.00482785 -0.00110459
C  0.00399609 -0.00865965 -0.00273696