56
geometry.out	Energy: -1264797.6355000
C          4.88541       -0.65621        0.57938
C          4.00832        0.38619        0.39934
C          2.72354        0.20045       -0.17458
C          2.38681       -1.13374       -0.52158
C          3.25424       -2.20077       -0.35108
C          4.53560       -1.99029        0.20117
C          1.75873        1.23557       -0.37431
C          0.21413       -0.47407       -1.20808
C          0.50922        0.89765       -0.90179
C         -0.54487        1.83152       -1.17158
H         -0.36351        2.88411       -0.99006
C         -1.76263        1.43062       -1.62544
C         -2.05632        0.03772       -1.86290
C         -1.00139       -0.89708       -1.67592
H          5.84878       -0.45470        1.02977
H          4.29956        1.38196        0.71335
H          2.90318       -3.18327       -0.63583
H         -2.53656        2.16994       -1.77637
H         -1.15126       -1.95649       -1.82371
N         -3.27160       -0.35069       -2.27566
N          5.40969       -3.02703        0.37975
P         -4.03908       -0.67292        1.40032
C          2.07655        2.63980        0.00255
C          1.35012        3.27950        1.02062
C          3.10456        3.34230       -0.64724
C          1.65120        4.59288        1.38121
H          0.55936        2.74084        1.53486
C          3.39328        4.65954       -0.29164
H          3.66401        2.85934       -1.44373
C          2.66992        5.28627        0.72511
H          1.08637        5.07269        2.17532
H          4.18251        5.19611       -0.81093
H          2.89873        6.31100        1.00409
F         -2.83183       -1.49737        0.62055
F         -3.02591       -0.36530        2.63031
F         -3.52922        0.71368        0.64523
F         -5.22980        0.16142        2.11566
F         -4.53111       -2.05270        2.09256
F         -5.01725       -0.96711        0.10158
C         -4.38030        0.60981       -2.34259
H         -5.28369        0.07589       -2.63054
H         -4.54123        1.05581       -1.35965
H         -4.17709        1.38078       -3.09475
C         -3.57878       -1.77909       -2.40249
H         -4.61485       -1.88797       -2.71736
H         -2.93390       -2.24260       -3.15818
H         -3.45346       -2.26772       -1.43376
C          5.00725       -4.38561        0.03694
H          5.83614       -5.06555        0.23497
H          4.14356       -4.71461        0.62992
H          4.74742       -4.46682       -1.02596
C          6.70938       -2.80178        1.00115
H          6.61239       -2.43292        2.03087
H          7.25712       -3.74404        1.02932
H          7.30735       -2.08149        0.42940
O          1.16634       -1.43662       -1.03439
